 vasp.5.4.4.18Apr17-6-g9f103f2a35 (build Apr 23 2020 23:07:35) complex          
  
 executed on             LinuxIFC date 2020.08.17  11:28:04
 running on   40 total cores
 distrk:  each k-point on   40 cores,    1 groups
 distr:  one band on NCORES_PER_BAND=  40 cores,    1 groups


--------------------------------------------------------------------------------------------------------


 INCAR:
 POTCAR:    PAW_PBE La 06Sep2000                  
 POTCAR:    PAW_PBE Ni 02Aug2007                  
 POTCAR:    PAW_PBE O 08Apr2002                   

 ----------------------------------------------------------------------------- 
|                                                                             |
|           W    W    AA    RRRRR   N    N  II  N    N   GGGG   !!!           |
|           W    W   A  A   R    R  NN   N  II  NN   N  G    G  !!!           |
|           W    W  A    A  R    R  N N  N  II  N N  N  G       !!!           |
|           W WW W  AAAAAA  RRRRR   N  N N  II  N  N N  G  GGG   !            |
|           WW  WW  A    A  R   R   N   NN  II  N   NN  G    G                |
|           W    W  A    A  R    R  N    N  II  N    N   GGGG   !!!           |
|                                                                             |
|      For optimal performance we recommend to set                            |
|        NCORE= 4 - approx SQRT( number of cores)                             |
|      NCORE specifies how many cores store one orbital (NPAR=cpu/NCORE).     |
|      This setting can  greatly improve the performance of VASP for DFT.     |
|      The default,   NCORE=1            might be grossly inefficient         |
|      on modern multi-core architectures or massively parallel machines.     |
|      Do your own testing !!!!                                               |
|      Unfortunately you need to use the default for GW and RPA calculations. |
|      (for HF NCORE is supported but not extensively tested yet)             |
|                                                                             |
 ----------------------------------------------------------------------------- 

 POTCAR:    PAW_PBE La 06Sep2000                  
   VRHFIN =La : [core=Kr4d]                                                     
   LEXCH  = PE                                                                  
   EATOM  =   865.9763 eV,   63.6475 Ry                                         
                                                                                
   TITEL  = PAW_PBE La 06Sep2000                                                
   LULTRA =        F    use ultrasoft PP ?                                      
   IUNSCR =        1    unscreen: 0-lin 1-nonlin 2-no                           
   RPACOR =    2.300    partial core radius                                     
   POMASS =  138.900; ZVAL   =   11.000    mass and valenz                      
   RCORE  =    2.800    outmost cutoff radius                                   
   RWIGS  =    2.900; RWIGS  =    1.535    wigner-seitz radius (au A)           
   ENMAX  =  219.292; ENMIN  =  164.469 eV                                      
   RCLOC  =    1.601    cutoff for local pot                                    
   LCOR   =        T    correct aug charges                                     
   LPAW   =        T    paw PP                                                  
   EAUG   =  583.575                                                            
   DEXC   =    0.000                                                            
   RMAX   =    2.853    core radius for proj-oper                               
   RAUG   =    1.300    factor for augmentation sphere                          
   RDEP   =    2.802    radius for radial grids                                 
   RDEPT  =    2.156    core radius for aug-charge                              
                                                                                
   Atomic configuration                                                         
   14 entries                                                                   
     n  l   j            E        occ.                                          
     1  0  0.50    -38741.0879   2.0000                                         
     2  0  0.50     -6166.6801   2.0000                                         
     2  1  1.50     -5526.1593   6.0000                                         
     3  0  0.50     -1319.0200   2.0000                                         
     3  1  1.50     -1114.5963   6.0000                                         
     3  2  2.50      -821.1793  10.0000                                         
     4  0  0.50      -266.3851   2.0000                                         
     4  1  1.50      -199.9276   6.0000                                         
     4  2  2.50      -103.8239  10.0000                                         
     5  0  0.50       -38.9172   2.0000                                         
     6  0  0.50        -3.6792   2.0000                                         
     5  1  1.50       -22.3948   6.0000                                         
     5  2  2.50        -3.0911   0.9999                                         
     4  3  2.50        -4.3603   0.0001                                         
   Description                                                                  
     l       E           TYP  RCUT    TYP  RCUT                                 
     0    -38.9171645     23  2.800                                             
     0     -3.6792381     23  2.800                                             
     1    -22.3948300     23  2.500                                             
     1     27.2116520     23  2.500                                             
     2     -3.0910934     23  2.500                                             
     2      1.0119135     23  2.500                                             
     3     -4.3602911     23  2.800                                             
     3     -5.7208737     23  2.800                                             
  local pseudopotential read in
  partial core-charges read in
  partial kinetic energy density read in
  atomic valenz-charges read in
  non local Contribution for L=           0  read in
    real space projection operators read in
  non local Contribution for L=           0  read in
    real space projection operators read in
  non local Contribution for L=           1  read in
    real space projection operators read in
  non local Contribution for L=           1  read in
    real space projection operators read in
  non local Contribution for L=           2  read in
    real space projection operators read in
  non local Contribution for L=           2  read in
    real space projection operators read in
  non local Contribution for L=           3  read in
    real space projection operators read in
  non local Contribution for L=           3  read in
    real space projection operators read in
    PAW grid and wavefunctions read in
 
   number of l-projection  operators is LMAX  =           8
   number of lm-projection operators is LMMAX =          32
 
 POTCAR:    PAW_PBE Ni 02Aug2007                  
   VRHFIN =Ni:                                                                  
   LEXCH  = PE                                                                  
   EATOM  =  1077.6739 eV,   79.2068 Ry                                         
                                                                                
   TITEL  = PAW_PBE Ni 02Aug2007                                                
   LULTRA =        F    use ultrasoft PP ?                                      
   IUNSCR =        1    unscreen: 0-lin 1-nonlin 2-no                           
   RPACOR =    2.000    partial core radius                                     
   POMASS =   58.690; ZVAL   =   10.000    mass and valenz                      
   RCORE  =    2.300    outmost cutoff radius                                   
   RWIGS  =    2.430; RWIGS  =    1.286    wigner-seitz radius (au A)           
   ENMAX  =  269.532; ENMIN  =  202.149 eV                                      
   RCLOC  =    1.201    cutoff for local pot                                    
   LCOR   =        T    correct aug charges                                     
   LPAW   =        T    paw PP                                                  
   EAUG   =  544.565                                                            
   DEXC   =    0.000                                                            
   RMAX   =    2.357    core radius for proj-oper                               
   RAUG   =    1.300    factor for augmentation sphere                          
   RDEP   =    2.390    radius for radial grids                                 
   RDEPT  =    1.838    core radius for aug-charge                              
                                                                                
   Atomic configuration                                                         
    9 entries                                                                   
     n  l   j            E        occ.                                          
     1  0  0.50     -8206.4253   2.0000                                         
     2  0  0.50      -976.1748   2.0000                                         
     2  1  1.50      -839.0571   6.0000                                         
     3  0  0.50      -105.9991   2.0000                                         
     3  1  1.50       -66.4603   6.0000                                         
     3  2  2.50        -4.6458   9.0000                                         
     4  0  0.50        -4.4926   1.0000                                         
     4  1  1.50        -4.0817   0.0000                                         
     4  3  2.50        -1.3606   0.0000                                         
   Description                                                                  
     l       E           TYP  RCUT    TYP  RCUT                                 
     2     -4.6457903     23  2.300                                             
     2     -6.0063729     23  2.300                                             
     0     -4.4925590     23  2.300                                             
     0      5.0102601     23  2.300                                             
     1     -2.7211652     23  2.300                                             
     1     16.5183231     23  2.300                                             
  local pseudopotential read in
  partial core-charges read in
  partial kinetic energy density read in
  atomic valenz-charges read in
  non local Contribution for L=           2  read in
    real space projection operators read in
  non local Contribution for L=           2  read in
    real space projection operators read in
  non local Contribution for L=           0  read in
    real space projection operators read in
  non local Contribution for L=           0  read in
    real space projection operators read in
  non local Contribution for L=           1  read in
    real space projection operators read in
  non local Contribution for L=           1  read in
    real space projection operators read in
    PAW grid and wavefunctions read in
 
   number of l-projection  operators is LMAX  =           6
   number of lm-projection operators is LMMAX =          18
 
 POTCAR:    PAW_PBE O 08Apr2002                   
   VRHFIN =O: s2p4                                                              
   LEXCH  = PE                                                                  
   EATOM  =   432.3788 eV,   31.7789 Ry                                         
                                                                                
   TITEL  = PAW_PBE O 08Apr2002                                                 
   LULTRA =        F    use ultrasoft PP ?                                      
   IUNSCR =        1    unscreen: 0-lin 1-nonlin 2-no                           
   RPACOR =    1.200    partial core radius                                     
   POMASS =   16.000; ZVAL   =    6.000    mass and valenz                      
   RCORE  =    1.520    outmost cutoff radius                                   
   RWIGS  =    1.550; RWIGS  =    0.820    wigner-seitz radius (au A)           
   ENMAX  =  400.000; ENMIN  =  300.000 eV                                      
   ICORE  =        2    local potential                                         
   LCOR   =        T    correct aug charges                                     
   LPAW   =        T    paw PP                                                  
   EAUG   =  605.392                                                            
   DEXC   =    0.000                                                            
   RMAX   =    1.553    core radius for proj-oper                               
   RAUG   =    1.300    factor for augmentation sphere                          
   RDEP   =    1.550    radius for radial grids                                 
   RDEPT  =    1.329    core radius for aug-charge                              
                                                                                
   Atomic configuration                                                         
    4 entries                                                                   
     n  l   j            E        occ.                                          
     1  0  0.50      -514.6923   2.0000                                         
     2  0  0.50       -23.9615   2.0000                                         
     2  1  0.50        -9.0305   4.0000                                         
     3  2  1.50        -9.5241   0.0000                                         
   Description                                                                  
     l       E           TYP  RCUT    TYP  RCUT                                 
     0    -23.9615318     23  1.200                                             
     0     -9.5240782     23  1.200                                             
     1     -9.0304911     23  1.520                                             
     1      8.1634956     23  1.520                                             
     2     -9.5240782      7  1.500                                             
  local pseudopotential read in
  partial core-charges read in
  partial kinetic energy density read in
  kinetic energy density of atom read in
  atomic valenz-charges read in
  non local Contribution for L=           0  read in
    real space projection operators read in
  non local Contribution for L=           0  read in
    real space projection operators read in
  non local Contribution for L=           1  read in
    real space projection operators read in
  non local Contribution for L=           1  read in
    real space projection operators read in
    PAW grid and wavefunctions read in
 
   number of l-projection  operators is LMAX  =           4
   number of lm-projection operators is LMMAX =           8
 
 Optimization of the real space projectors (new method)

 maximal supplied QI-value         = 13.42
 optimisation between [QCUT,QGAM] = [ 12.48, 25.09] = [ 43.60,176.28] Ry 
 Optimized for a Real-space Cutoff    1.61 Angstroem

   l    n(q)    QCUT    max X(q) W(low)/X(q) W(high)/X(q)  e(spline) 
   0     12    12.478    13.882    0.23E-04    0.83E-05    0.20E-06
   0     12    12.478    12.184    0.33E-04    0.13E-04    0.33E-06
   1     12    12.478     4.523    0.11E-04    0.86E-05    0.64E-07
   1     12    12.478     4.424    0.16E-04    0.11E-04    0.10E-06
   2     11    12.478    52.481    0.47E-04    0.21E-04    0.34E-06
   2     11    12.478    38.501    0.44E-04    0.20E-04    0.31E-06
   3     11    12.478    65.631    0.65E-04    0.14E-03    0.17E-05
   3     11    12.478    56.854    0.67E-04    0.14E-03    0.17E-05
 Optimization of the real space projectors (new method)

 maximal supplied QI-value         = 16.25
 optimisation between [QCUT,QGAM] = [ 12.51, 25.03] = [ 43.85,175.40] Ry 
 Optimized for a Real-space Cutoff    1.35 Angstroem

   l    n(q)    QCUT    max X(q) W(low)/X(q) W(high)/X(q)  e(spline) 
   2      9    12.514    60.317    0.12E-03    0.13E-03    0.35E-06
   2      9    12.514    55.921    0.12E-03    0.13E-03    0.36E-06
   0     10    12.514    51.690    0.20E-03    0.11E-03    0.14E-06
   0     10    12.514    30.015    0.18E-03    0.96E-04    0.13E-06
   1     10    12.514    18.849    0.12E-03    0.67E-04    0.21E-06
   1     10    12.514    14.624    0.11E-03    0.53E-04    0.17E-06
 Optimization of the real space projectors (new method)

 maximal supplied QI-value         = 24.76
 optimisation between [QCUT,QGAM] = [ 12.38, 25.00] = [ 42.90,175.06] Ry 
 Optimized for a Real-space Cutoff    1.16 Angstroem

   l    n(q)    QCUT    max X(q) W(low)/X(q) W(high)/X(q)  e(spline) 
   0      9    12.378    20.381    0.16E-03    0.67E-05    0.31E-06
   0      9    12.378    15.268    0.17E-03    0.81E-05    0.33E-06
   1      8    12.378     5.964    0.20E-03    0.16E-03    0.30E-06
   1      8    12.378     5.382    0.18E-03    0.14E-03    0.26E-06
  PAW_PBE La 06Sep2000                  :
 energy of atom  1       EATOM= -865.9763
 kinetic energy error for atom=    0.0007 (will be added to EATOM!!)
  PAW_PBE Ni 02Aug2007                  :
 energy of atom  2       EATOM=-1077.6739
 kinetic energy error for atom=    0.0019 (will be added to EATOM!!)
  PAW_PBE O 08Apr2002                   :
 energy of atom  3       EATOM= -432.3788
 kinetic energy error for atom=    0.0168 (will be added to EATOM!!)
 
 
 POSCAR: La6 Ni6 O17                             
  positions in direct lattice
  No initial velocities read in
 exchange correlation table for  LEXCH =        8
   RHO(1)=    0.500       N(1)  =     2000
   RHO(2)=  100.500       N(2)  =     4000

 VTST: version 3.2, (02/03/18)

 CHAIN: initializing optimizer
 
 OPT: Using VASP Dynamics algorithm
 CHAIN: Read ICHAIN            0
 
 POSCAR: La6 Ni6 O17                             
  positions in direct lattice
  No initial velocities read in
 


--------------------------------------------------------------------------------------------------------


 ion  position               nearest neighbor table
   1  0.000  0.000  0.250-  13 2.43  14 2.43  27 2.68  22 2.68  21 2.68  28 2.68  23 2.68  29 2.68
                             7 3.23   8 3.23   9 3.31  12 3.31  12 3.31   9 3.31   9 3.31  12 3.31
   2  0.000  0.000  0.750-  16 2.43  17 2.43  15 2.43  18 2.68  25 2.68  24 2.68  19 2.68  26 2.68
                            20 2.68   8 3.23   7 3.23  11 3.31  10 3.31  11 3.31  10 3.31  10 3.31
   3  0.667  0.333  0.583-  20 2.43  19 2.43  18 2.43  29 2.68  27 2.68  28 2.68  15 2.68  16 2.68
                            17 2.68  10 3.23   9 3.23   8 3.31  11 3.31  11 3.31   8 3.31   8 3.31
   4  0.667  0.333  0.083-  22 2.43  23 2.43  21 2.43  26 2.68  25 2.68  24 2.68  13 2.68  14 2.68
                             9 3.23  10 3.23   7 3.31  12 3.31  12 3.31   7 3.31   7 3.31  12 3.31
   5  0.333  0.667  0.917-  25 2.43  26 2.43  24 2.43  23 2.68  22 2.68  21 2.68  16 2.68  15 2.68
                            17 2.68  12 3.23  11 3.23   7 3.31  10 3.31  10 3.31   7 3.31   7 3.31
   6  0.333  0.667  0.417-  29 2.43  28 2.43  27 2.43  20 2.68  18 2.68  19 2.68  13 2.68  14 2.68
                            11 3.23  12 3.23   8 3.31   9 3.31   9 3.31   8 3.31   8 3.31   9 3.31
   7  0.000  0.000  0.000-  22 1.92  25 1.92  24 1.92  21 1.92  23 1.92  26 1.92   1 3.23   2 3.23
                             4 3.31   5 3.31   5 3.31   4 3.31   4 3.31   5 3.31
   8  0.000  0.000  0.500-  18 1.92  27 1.92  19 1.92  28 1.92  20 1.92  29 1.92   1 3.23   2 3.23
                             3 3.31   6 3.31   6 3.31   3 3.31   3 3.31   6 3.31
   9  0.667  0.333  0.333-  13 1.92  29 1.92  14 1.92  27 1.92  28 1.92   4 3.23   3 3.23   1 3.31
                             6 3.31   6 3.31   1 3.31   1 3.31   6 3.31
  10  0.667  0.333  0.833-  15 1.92  16 1.92  26 1.92  17 1.92  25 1.92  24 1.92   3 3.23   4 3.23
                             2 3.31   5 3.31   5 3.31   2 3.31   2 3.31   5 3.31
  11  0.333  0.667  0.667-  16 1.92  15 1.92  20 1.92  17 1.92  18 1.92  19 1.92   5 3.23   6 3.23
                             2 3.31   3 3.31   3 3.31   2 3.31   2 3.31   3 3.31
  12  0.333  0.667  0.167-  13 1.92  23 1.92  14 1.92  22 1.92  21 1.92   6 3.23   5 3.23   1 3.31
                             4 3.31   4 3.31   1 3.31   1 3.31   4 3.31
  13  0.000  0.448  0.250-   9 1.92  12 1.92   1 2.43   4 2.68   6 2.68
  14  0.552  0.552  0.250-   9 1.92  12 1.92   1 2.43   4 2.68   6 2.68
  15  0.552  0.000  0.750-  10 1.92  11 1.92   2 2.43   3 2.68   5 2.68
  16  0.000  0.552  0.750-  11 1.92  10 1.92   2 2.43   5 2.68   3 2.68
  17  0.448  0.448  0.750-  11 1.92  10 1.92   2 2.43   5 2.68   3 2.68
  18  0.115  0.333  0.583-   8 1.92  11 1.92   3 2.43   6 2.68   2 2.68
  19  0.667  0.781  0.583-   8 1.92  11 1.92   3 2.43   6 2.68   2 2.68
  20  0.219  0.885  0.583-  11 1.92   8 1.92   3 2.43   6 2.68   2 2.68
  21  0.219  0.333  0.083-   7 1.92  12 1.92   4 2.43   5 2.68   1 2.68
  22  0.667  0.885  0.083-   7 1.92  12 1.92   4 2.43   5 2.68   1 2.68
  23  0.115  0.781  0.083-  12 1.92   7 1.92   4 2.43   5 2.68   1 2.68
  24  0.781  0.667  0.917-   7 1.92  10 1.92   5 2.43   4 2.68   2 2.68
  25  0.333  0.115  0.917-   7 1.92  10 1.92   5 2.43   4 2.68   2 2.68
  26  0.885  0.219  0.917-  10 1.92   7 1.92   5 2.43   4 2.68   2 2.68
  27  0.885  0.667  0.417-   8 1.92   9 1.92   6 2.43   3 2.68   1 2.68
  28  0.333  0.219  0.417-   8 1.92   9 1.92   6 2.43   3 2.68   1 2.68
  29  0.781  0.115  0.417-   9 1.92   8 1.92   6 2.43   3 2.68   1 2.68
 

IMPORTANT INFORMATION: All symmetrisations will be switched off!
NOSYMM: (Re-)initialisation of all symmetry stuff for point group C_1.

 
 
 KPOINTS: Automatic mesh                          

Automatic generation of k-mesh.
Space group operators:
 irot       det(A)        alpha          n_x          n_y          n_z        tau_x        tau_y        tau_z
    1     1.000000     0.000001     1.000000     0.000000     0.000000     0.000000     0.000000     0.000000
 
 Subroutine IBZKPT returns following result:
 ===========================================
 
 Found    512 irreducible k-points:
 
 Following reciprocal coordinates:
            Coordinates               Weight
  0.062500  0.062500  0.062500      1.000000
  0.187500  0.062500  0.062500      1.000000
  0.312500  0.062500  0.062500      1.000000
  0.437500  0.062500  0.062500      1.000000
 -0.437500  0.062500  0.062500      1.000000
 -0.312500  0.062500  0.062500      1.000000
 -0.187500  0.062500  0.062500      1.000000
 -0.062500  0.062500  0.062500      1.000000
  0.062500  0.187500  0.062500      1.000000
  0.187500  0.187500  0.062500      1.000000
  0.312500  0.187500  0.062500      1.000000
  0.437500  0.187500  0.062500      1.000000
 -0.437500  0.187500  0.062500      1.000000
 -0.312500  0.187500  0.062500      1.000000
 -0.187500  0.187500  0.062500      1.000000
 -0.062500  0.187500  0.062500      1.000000
  0.062500  0.312500  0.062500      1.000000
  0.187500  0.312500  0.062500      1.000000
  0.312500  0.312500  0.062500      1.000000
  0.437500  0.312500  0.062500      1.000000
 -0.437500  0.312500  0.062500      1.000000
 -0.312500  0.312500  0.062500      1.000000
 -0.187500  0.312500  0.062500      1.000000
 -0.062500  0.312500  0.062500      1.000000
  0.062500  0.437500  0.062500      1.000000
  0.187500  0.437500  0.062500      1.000000
  0.312500  0.437500  0.062500      1.000000
  0.437500  0.437500  0.062500      1.000000
 -0.437500  0.437500  0.062500      1.000000
 -0.312500  0.437500  0.062500      1.000000
 -0.187500  0.437500  0.062500      1.000000
 -0.062500  0.437500  0.062500      1.000000
  0.062500 -0.437500  0.062500      1.000000
  0.187500 -0.437500  0.062500      1.000000
  0.312500 -0.437500  0.062500      1.000000
  0.437500 -0.437500  0.062500      1.000000
 -0.437500 -0.437500  0.062500      1.000000
 -0.312500 -0.437500  0.062500      1.000000
 -0.187500 -0.437500  0.062500      1.000000
 -0.062500 -0.437500  0.062500      1.000000
  0.062500 -0.312500  0.062500      1.000000
  0.187500 -0.312500  0.062500      1.000000
  0.312500 -0.312500  0.062500      1.000000
  0.437500 -0.312500  0.062500      1.000000
 -0.437500 -0.312500  0.062500      1.000000
 -0.312500 -0.312500  0.062500      1.000000
 -0.187500 -0.312500  0.062500      1.000000
 -0.062500 -0.312500  0.062500      1.000000
  0.062500 -0.187500  0.062500      1.000000
  0.187500 -0.187500  0.062500      1.000000
  0.312500 -0.187500  0.062500      1.000000
  0.437500 -0.187500  0.062500      1.000000
 -0.437500 -0.187500  0.062500      1.000000
 -0.312500 -0.187500  0.062500      1.000000
 -0.187500 -0.187500  0.062500      1.000000
 -0.062500 -0.187500  0.062500      1.000000
  0.062500 -0.062500  0.062500      1.000000
  0.187500 -0.062500  0.062500      1.000000
  0.312500 -0.062500  0.062500      1.000000
  0.437500 -0.062500  0.062500      1.000000
 -0.437500 -0.062500  0.062500      1.000000
 -0.312500 -0.062500  0.062500      1.000000
 -0.187500 -0.062500  0.062500      1.000000
 -0.062500 -0.062500  0.062500      1.000000
  0.062500  0.062500  0.187500      1.000000
  0.187500  0.062500  0.187500      1.000000
  0.312500  0.062500  0.187500      1.000000
  0.437500  0.062500  0.187500      1.000000
 -0.437500  0.062500  0.187500      1.000000
 -0.312500  0.062500  0.187500      1.000000
 -0.187500  0.062500  0.187500      1.000000
 -0.062500  0.062500  0.187500      1.000000
  0.062500  0.187500  0.187500      1.000000
  0.187500  0.187500  0.187500      1.000000
  0.312500  0.187500  0.187500      1.000000
  0.437500  0.187500  0.187500      1.000000
 -0.437500  0.187500  0.187500      1.000000
 -0.312500  0.187500  0.187500      1.000000
 -0.187500  0.187500  0.187500      1.000000
 -0.062500  0.187500  0.187500      1.000000
  0.062500  0.312500  0.187500      1.000000
  0.187500  0.312500  0.187500      1.000000
  0.312500  0.312500  0.187500      1.000000
  0.437500  0.312500  0.187500      1.000000
 -0.437500  0.312500  0.187500      1.000000
 -0.312500  0.312500  0.187500      1.000000
 -0.187500  0.312500  0.187500      1.000000
 -0.062500  0.312500  0.187500      1.000000
  0.062500  0.437500  0.187500      1.000000
  0.187500  0.437500  0.187500      1.000000
  0.312500  0.437500  0.187500      1.000000
  0.437500  0.437500  0.187500      1.000000
 -0.437500  0.437500  0.187500      1.000000
 -0.312500  0.437500  0.187500      1.000000
 -0.187500  0.437500  0.187500      1.000000
 -0.062500  0.437500  0.187500      1.000000
  0.062500 -0.437500  0.187500      1.000000
  0.187500 -0.437500  0.187500      1.000000
  0.312500 -0.437500  0.187500      1.000000
  0.437500 -0.437500  0.187500      1.000000
 -0.437500 -0.437500  0.187500      1.000000
 -0.312500 -0.437500  0.187500      1.000000
 -0.187500 -0.437500  0.187500      1.000000
 -0.062500 -0.437500  0.187500      1.000000
  0.062500 -0.312500  0.187500      1.000000
  0.187500 -0.312500  0.187500      1.000000
  0.312500 -0.312500  0.187500      1.000000
  0.437500 -0.312500  0.187500      1.000000
 -0.437500 -0.312500  0.187500      1.000000
 -0.312500 -0.312500  0.187500      1.000000
 -0.187500 -0.312500  0.187500      1.000000
 -0.062500 -0.312500  0.187500      1.000000
  0.062500 -0.187500  0.187500      1.000000
  0.187500 -0.187500  0.187500      1.000000
  0.312500 -0.187500  0.187500      1.000000
  0.437500 -0.187500  0.187500      1.000000
 -0.437500 -0.187500  0.187500      1.000000
 -0.312500 -0.187500  0.187500      1.000000
 -0.187500 -0.187500  0.187500      1.000000
 -0.062500 -0.187500  0.187500      1.000000
  0.062500 -0.062500  0.187500      1.000000
  0.187500 -0.062500  0.187500      1.000000
  0.312500 -0.062500  0.187500      1.000000
  0.437500 -0.062500  0.187500      1.000000
 -0.437500 -0.062500  0.187500      1.000000
 -0.312500 -0.062500  0.187500      1.000000
 -0.187500 -0.062500  0.187500      1.000000
 -0.062500 -0.062500  0.187500      1.000000
  0.062500  0.062500  0.312500      1.000000
  0.187500  0.062500  0.312500      1.000000
  0.312500  0.062500  0.312500      1.000000
  0.437500  0.062500  0.312500      1.000000
 -0.437500  0.062500  0.312500      1.000000
 -0.312500  0.062500  0.312500      1.000000
 -0.187500  0.062500  0.312500      1.000000
 -0.062500  0.062500  0.312500      1.000000
  0.062500  0.187500  0.312500      1.000000
  0.187500  0.187500  0.312500      1.000000
  0.312500  0.187500  0.312500      1.000000
  0.437500  0.187500  0.312500      1.000000
 -0.437500  0.187500  0.312500      1.000000
 -0.312500  0.187500  0.312500      1.000000
 -0.187500  0.187500  0.312500      1.000000
 -0.062500  0.187500  0.312500      1.000000
  0.062500  0.312500  0.312500      1.000000
  0.187500  0.312500  0.312500      1.000000
  0.312500  0.312500  0.312500      1.000000
  0.437500  0.312500  0.312500      1.000000
 -0.437500  0.312500  0.312500      1.000000
 -0.312500  0.312500  0.312500      1.000000
 -0.187500  0.312500  0.312500      1.000000
 -0.062500  0.312500  0.312500      1.000000
  0.062500  0.437500  0.312500      1.000000
  0.187500  0.437500  0.312500      1.000000
  0.312500  0.437500  0.312500      1.000000
  0.437500  0.437500  0.312500      1.000000
 -0.437500  0.437500  0.312500      1.000000
 -0.312500  0.437500  0.312500      1.000000
 -0.187500  0.437500  0.312500      1.000000
 -0.062500  0.437500  0.312500      1.000000
  0.062500 -0.437500  0.312500      1.000000
  0.187500 -0.437500  0.312500      1.000000
  0.312500 -0.437500  0.312500      1.000000
  0.437500 -0.437500  0.312500      1.000000
 -0.437500 -0.437500  0.312500      1.000000
 -0.312500 -0.437500  0.312500      1.000000
 -0.187500 -0.437500  0.312500      1.000000
 -0.062500 -0.437500  0.312500      1.000000
  0.062500 -0.312500  0.312500      1.000000
  0.187500 -0.312500  0.312500      1.000000
  0.312500 -0.312500  0.312500      1.000000
  0.437500 -0.312500  0.312500      1.000000
 -0.437500 -0.312500  0.312500      1.000000
 -0.312500 -0.312500  0.312500      1.000000
 -0.187500 -0.312500  0.312500      1.000000
 -0.062500 -0.312500  0.312500      1.000000
  0.062500 -0.187500  0.312500      1.000000
  0.187500 -0.187500  0.312500      1.000000
  0.312500 -0.187500  0.312500      1.000000
  0.437500 -0.187500  0.312500      1.000000
 -0.437500 -0.187500  0.312500      1.000000
 -0.312500 -0.187500  0.312500      1.000000
 -0.187500 -0.187500  0.312500      1.000000
 -0.062500 -0.187500  0.312500      1.000000
  0.062500 -0.062500  0.312500      1.000000
  0.187500 -0.062500  0.312500      1.000000
  0.312500 -0.062500  0.312500      1.000000
  0.437500 -0.062500  0.312500      1.000000
 -0.437500 -0.062500  0.312500      1.000000
 -0.312500 -0.062500  0.312500      1.000000
 -0.187500 -0.062500  0.312500      1.000000
 -0.062500 -0.062500  0.312500      1.000000
  0.062500  0.062500  0.437500      1.000000
  0.187500  0.062500  0.437500      1.000000
  0.312500  0.062500  0.437500      1.000000
  0.437500  0.062500  0.437500      1.000000
 -0.437500  0.062500  0.437500      1.000000
 -0.312500  0.062500  0.437500      1.000000
 -0.187500  0.062500  0.437500      1.000000
 -0.062500  0.062500  0.437500      1.000000
  0.062500  0.187500  0.437500      1.000000
  0.187500  0.187500  0.437500      1.000000
  0.312500  0.187500  0.437500      1.000000
  0.437500  0.187500  0.437500      1.000000
 -0.437500  0.187500  0.437500      1.000000
 -0.312500  0.187500  0.437500      1.000000
 -0.187500  0.187500  0.437500      1.000000
 -0.062500  0.187500  0.437500      1.000000
  0.062500  0.312500  0.437500      1.000000
  0.187500  0.312500  0.437500      1.000000
  0.312500  0.312500  0.437500      1.000000
  0.437500  0.312500  0.437500      1.000000
 -0.437500  0.312500  0.437500      1.000000
 -0.312500  0.312500  0.437500      1.000000
 -0.187500  0.312500  0.437500      1.000000
 -0.062500  0.312500  0.437500      1.000000
  0.062500  0.437500  0.437500      1.000000
  0.187500  0.437500  0.437500      1.000000
  0.312500  0.437500  0.437500      1.000000
  0.437500  0.437500  0.437500      1.000000
 -0.437500  0.437500  0.437500      1.000000
 -0.312500  0.437500  0.437500      1.000000
 -0.187500  0.437500  0.437500      1.000000
 -0.062500  0.437500  0.437500      1.000000
  0.062500 -0.437500  0.437500      1.000000
  0.187500 -0.437500  0.437500      1.000000
  0.312500 -0.437500  0.437500      1.000000
  0.437500 -0.437500  0.437500      1.000000
 -0.437500 -0.437500  0.437500      1.000000
 -0.312500 -0.437500  0.437500      1.000000
 -0.187500 -0.437500  0.437500      1.000000
 -0.062500 -0.437500  0.437500      1.000000
  0.062500 -0.312500  0.437500      1.000000
  0.187500 -0.312500  0.437500      1.000000
  0.312500 -0.312500  0.437500      1.000000
  0.437500 -0.312500  0.437500      1.000000
 -0.437500 -0.312500  0.437500      1.000000
 -0.312500 -0.312500  0.437500      1.000000
 -0.187500 -0.312500  0.437500      1.000000
 -0.062500 -0.312500  0.437500      1.000000
  0.062500 -0.187500  0.437500      1.000000
  0.187500 -0.187500  0.437500      1.000000
  0.312500 -0.187500  0.437500      1.000000
  0.437500 -0.187500  0.437500      1.000000
 -0.437500 -0.187500  0.437500      1.000000
 -0.312500 -0.187500  0.437500      1.000000
 -0.187500 -0.187500  0.437500      1.000000
 -0.062500 -0.187500  0.437500      1.000000
  0.062500 -0.062500  0.437500      1.000000
  0.187500 -0.062500  0.437500      1.000000
  0.312500 -0.062500  0.437500      1.000000
  0.437500 -0.062500  0.437500      1.000000
 -0.437500 -0.062500  0.437500      1.000000
 -0.312500 -0.062500  0.437500      1.000000
 -0.187500 -0.062500  0.437500      1.000000
 -0.062500 -0.062500  0.437500      1.000000
  0.062500  0.062500 -0.437500      1.000000
  0.187500  0.062500 -0.437500      1.000000
  0.312500  0.062500 -0.437500      1.000000
  0.437500  0.062500 -0.437500      1.000000
 -0.437500  0.062500 -0.437500      1.000000
 -0.312500  0.062500 -0.437500      1.000000
 -0.187500  0.062500 -0.437500      1.000000
 -0.062500  0.062500 -0.437500      1.000000
  0.062500  0.187500 -0.437500      1.000000
  0.187500  0.187500 -0.437500      1.000000
  0.312500  0.187500 -0.437500      1.000000
  0.437500  0.187500 -0.437500      1.000000
 -0.437500  0.187500 -0.437500      1.000000
 -0.312500  0.187500 -0.437500      1.000000
 -0.187500  0.187500 -0.437500      1.000000
 -0.062500  0.187500 -0.437500      1.000000
  0.062500  0.312500 -0.437500      1.000000
  0.187500  0.312500 -0.437500      1.000000
  0.312500  0.312500 -0.437500      1.000000
  0.437500  0.312500 -0.437500      1.000000
 -0.437500  0.312500 -0.437500      1.000000
 -0.312500  0.312500 -0.437500      1.000000
 -0.187500  0.312500 -0.437500      1.000000
 -0.062500  0.312500 -0.437500      1.000000
  0.062500  0.437500 -0.437500      1.000000
  0.187500  0.437500 -0.437500      1.000000
  0.312500  0.437500 -0.437500      1.000000
  0.437500  0.437500 -0.437500      1.000000
 -0.437500  0.437500 -0.437500      1.000000
 -0.312500  0.437500 -0.437500      1.000000
 -0.187500  0.437500 -0.437500      1.000000
 -0.062500  0.437500 -0.437500      1.000000
  0.062500 -0.437500 -0.437500      1.000000
  0.187500 -0.437500 -0.437500      1.000000
  0.312500 -0.437500 -0.437500      1.000000
  0.437500 -0.437500 -0.437500      1.000000
 -0.437500 -0.437500 -0.437500      1.000000
 -0.312500 -0.437500 -0.437500      1.000000
 -0.187500 -0.437500 -0.437500      1.000000
 -0.062500 -0.437500 -0.437500      1.000000
  0.062500 -0.312500 -0.437500      1.000000
  0.187500 -0.312500 -0.437500      1.000000
  0.312500 -0.312500 -0.437500      1.000000
  0.437500 -0.312500 -0.437500      1.000000
 -0.437500 -0.312500 -0.437500      1.000000
 -0.312500 -0.312500 -0.437500      1.000000
 -0.187500 -0.312500 -0.437500      1.000000
 -0.062500 -0.312500 -0.437500      1.000000
  0.062500 -0.187500 -0.437500      1.000000
  0.187500 -0.187500 -0.437500      1.000000
  0.312500 -0.187500 -0.437500      1.000000
  0.437500 -0.187500 -0.437500      1.000000
 -0.437500 -0.187500 -0.437500      1.000000
 -0.312500 -0.187500 -0.437500      1.000000
 -0.187500 -0.187500 -0.437500      1.000000
 -0.062500 -0.187500 -0.437500      1.000000
  0.062500 -0.062500 -0.437500      1.000000
  0.187500 -0.062500 -0.437500      1.000000
  0.312500 -0.062500 -0.437500      1.000000
  0.437500 -0.062500 -0.437500      1.000000
 -0.437500 -0.062500 -0.437500      1.000000
 -0.312500 -0.062500 -0.437500      1.000000
 -0.187500 -0.062500 -0.437500      1.000000
 -0.062500 -0.062500 -0.437500      1.000000
  0.062500  0.062500 -0.312500      1.000000
  0.187500  0.062500 -0.312500      1.000000
  0.312500  0.062500 -0.312500      1.000000
  0.437500  0.062500 -0.312500      1.000000
 -0.437500  0.062500 -0.312500      1.000000
 -0.312500  0.062500 -0.312500      1.000000
 -0.187500  0.062500 -0.312500      1.000000
 -0.062500  0.062500 -0.312500      1.000000
  0.062500  0.187500 -0.312500      1.000000
  0.187500  0.187500 -0.312500      1.000000
  0.312500  0.187500 -0.312500      1.000000
  0.437500  0.187500 -0.312500      1.000000
 -0.437500  0.187500 -0.312500      1.000000
 -0.312500  0.187500 -0.312500      1.000000
 -0.187500  0.187500 -0.312500      1.000000
 -0.062500  0.187500 -0.312500      1.000000
  0.062500  0.312500 -0.312500      1.000000
  0.187500  0.312500 -0.312500      1.000000
  0.312500  0.312500 -0.312500      1.000000
  0.437500  0.312500 -0.312500      1.000000
 -0.437500  0.312500 -0.312500      1.000000
 -0.312500  0.312500 -0.312500      1.000000
 -0.187500  0.312500 -0.312500      1.000000
 -0.062500  0.312500 -0.312500      1.000000
  0.062500  0.437500 -0.312500      1.000000
  0.187500  0.437500 -0.312500      1.000000
  0.312500  0.437500 -0.312500      1.000000
  0.437500  0.437500 -0.312500      1.000000
 -0.437500  0.437500 -0.312500      1.000000
 -0.312500  0.437500 -0.312500      1.000000
 -0.187500  0.437500 -0.312500      1.000000
 -0.062500  0.437500 -0.312500      1.000000
  0.062500 -0.437500 -0.312500      1.000000
  0.187500 -0.437500 -0.312500      1.000000
  0.312500 -0.437500 -0.312500      1.000000
  0.437500 -0.437500 -0.312500      1.000000
 -0.437500 -0.437500 -0.312500      1.000000
 -0.312500 -0.437500 -0.312500      1.000000
 -0.187500 -0.437500 -0.312500      1.000000
 -0.062500 -0.437500 -0.312500      1.000000
  0.062500 -0.312500 -0.312500      1.000000
  0.187500 -0.312500 -0.312500      1.000000
  0.312500 -0.312500 -0.312500      1.000000
  0.437500 -0.312500 -0.312500      1.000000
 -0.437500 -0.312500 -0.312500      1.000000
 -0.312500 -0.312500 -0.312500      1.000000
 -0.187500 -0.312500 -0.312500      1.000000
 -0.062500 -0.312500 -0.312500      1.000000
  0.062500 -0.187500 -0.312500      1.000000
  0.187500 -0.187500 -0.312500      1.000000
  0.312500 -0.187500 -0.312500      1.000000
  0.437500 -0.187500 -0.312500      1.000000
 -0.437500 -0.187500 -0.312500      1.000000
 -0.312500 -0.187500 -0.312500      1.000000
 -0.187500 -0.187500 -0.312500      1.000000
 -0.062500 -0.187500 -0.312500      1.000000
  0.062500 -0.062500 -0.312500      1.000000
  0.187500 -0.062500 -0.312500      1.000000
  0.312500 -0.062500 -0.312500      1.000000
  0.437500 -0.062500 -0.312500      1.000000
 -0.437500 -0.062500 -0.312500      1.000000
 -0.312500 -0.062500 -0.312500      1.000000
 -0.187500 -0.062500 -0.312500      1.000000
 -0.062500 -0.062500 -0.312500      1.000000
  0.062500  0.062500 -0.187500      1.000000
  0.187500  0.062500 -0.187500      1.000000
  0.312500  0.062500 -0.187500      1.000000
  0.437500  0.062500 -0.187500      1.000000
 -0.437500  0.062500 -0.187500      1.000000
 -0.312500  0.062500 -0.187500      1.000000
 -0.187500  0.062500 -0.187500      1.000000
 -0.062500  0.062500 -0.187500      1.000000
  0.062500  0.187500 -0.187500      1.000000
  0.187500  0.187500 -0.187500      1.000000
  0.312500  0.187500 -0.187500      1.000000
  0.437500  0.187500 -0.187500      1.000000
 -0.437500  0.187500 -0.187500      1.000000
 -0.312500  0.187500 -0.187500      1.000000
 -0.187500  0.187500 -0.187500      1.000000
 -0.062500  0.187500 -0.187500      1.000000
  0.062500  0.312500 -0.187500      1.000000
  0.187500  0.312500 -0.187500      1.000000
  0.312500  0.312500 -0.187500      1.000000
  0.437500  0.312500 -0.187500      1.000000
 -0.437500  0.312500 -0.187500      1.000000
 -0.312500  0.312500 -0.187500      1.000000
 -0.187500  0.312500 -0.187500      1.000000
 -0.062500  0.312500 -0.187500      1.000000
  0.062500  0.437500 -0.187500      1.000000
  0.187500  0.437500 -0.187500      1.000000
  0.312500  0.437500 -0.187500      1.000000
  0.437500  0.437500 -0.187500      1.000000
 -0.437500  0.437500 -0.187500      1.000000
 -0.312500  0.437500 -0.187500      1.000000
 -0.187500  0.437500 -0.187500      1.000000
 -0.062500  0.437500 -0.187500      1.000000
  0.062500 -0.437500 -0.187500      1.000000
  0.187500 -0.437500 -0.187500      1.000000
  0.312500 -0.437500 -0.187500      1.000000
  0.437500 -0.437500 -0.187500      1.000000
 -0.437500 -0.437500 -0.187500      1.000000
 -0.312500 -0.437500 -0.187500      1.000000
 -0.187500 -0.437500 -0.187500      1.000000
 -0.062500 -0.437500 -0.187500      1.000000
  0.062500 -0.312500 -0.187500      1.000000
  0.187500 -0.312500 -0.187500      1.000000
  0.312500 -0.312500 -0.187500      1.000000
  0.437500 -0.312500 -0.187500      1.000000
 -0.437500 -0.312500 -0.187500      1.000000
 -0.312500 -0.312500 -0.187500      1.000000
 -0.187500 -0.312500 -0.187500      1.000000
 -0.062500 -0.312500 -0.187500      1.000000
  0.062500 -0.187500 -0.187500      1.000000
  0.187500 -0.187500 -0.187500      1.000000
  0.312500 -0.187500 -0.187500      1.000000
  0.437500 -0.187500 -0.187500      1.000000
 -0.437500 -0.187500 -0.187500      1.000000
 -0.312500 -0.187500 -0.187500      1.000000
 -0.187500 -0.187500 -0.187500      1.000000
 -0.062500 -0.187500 -0.187500      1.000000
  0.062500 -0.062500 -0.187500      1.000000
  0.187500 -0.062500 -0.187500      1.000000
  0.312500 -0.062500 -0.187500      1.000000
  0.437500 -0.062500 -0.187500      1.000000
 -0.437500 -0.062500 -0.187500      1.000000
 -0.312500 -0.062500 -0.187500      1.000000
 -0.187500 -0.062500 -0.187500      1.000000
 -0.062500 -0.062500 -0.187500      1.000000
  0.062500  0.062500 -0.062500      1.000000
  0.187500  0.062500 -0.062500      1.000000
  0.312500  0.062500 -0.062500      1.000000
  0.437500  0.062500 -0.062500      1.000000
 -0.437500  0.062500 -0.062500      1.000000
 -0.312500  0.062500 -0.062500      1.000000
 -0.187500  0.062500 -0.062500      1.000000
 -0.062500  0.062500 -0.062500      1.000000
  0.062500  0.187500 -0.062500      1.000000
  0.187500  0.187500 -0.062500      1.000000
  0.312500  0.187500 -0.062500      1.000000
  0.437500  0.187500 -0.062500      1.000000
 -0.437500  0.187500 -0.062500      1.000000
 -0.312500  0.187500 -0.062500      1.000000
 -0.187500  0.187500 -0.062500      1.000000
 -0.062500  0.187500 -0.062500      1.000000
  0.062500  0.312500 -0.062500      1.000000
  0.187500  0.312500 -0.062500      1.000000
  0.312500  0.312500 -0.062500      1.000000
  0.437500  0.312500 -0.062500      1.000000
 -0.437500  0.312500 -0.062500      1.000000
 -0.312500  0.312500 -0.062500      1.000000
 -0.187500  0.312500 -0.062500      1.000000
 -0.062500  0.312500 -0.062500      1.000000
  0.062500  0.437500 -0.062500      1.000000
  0.187500  0.437500 -0.062500      1.000000
  0.312500  0.437500 -0.062500      1.000000
  0.437500  0.437500 -0.062500      1.000000
 -0.437500  0.437500 -0.062500      1.000000
 -0.312500  0.437500 -0.062500      1.000000
 -0.187500  0.437500 -0.062500      1.000000
 -0.062500  0.437500 -0.062500      1.000000
  0.062500 -0.437500 -0.062500      1.000000
  0.187500 -0.437500 -0.062500      1.000000
  0.312500 -0.437500 -0.062500      1.000000
  0.437500 -0.437500 -0.062500      1.000000
 -0.437500 -0.437500 -0.062500      1.000000
 -0.312500 -0.437500 -0.062500      1.000000
 -0.187500 -0.437500 -0.062500      1.000000
 -0.062500 -0.437500 -0.062500      1.000000
  0.062500 -0.312500 -0.062500      1.000000
  0.187500 -0.312500 -0.062500      1.000000
  0.312500 -0.312500 -0.062500      1.000000
  0.437500 -0.312500 -0.062500      1.000000
 -0.437500 -0.312500 -0.062500      1.000000
 -0.312500 -0.312500 -0.062500      1.000000
 -0.187500 -0.312500 -0.062500      1.000000
 -0.062500 -0.312500 -0.062500      1.000000
  0.062500 -0.187500 -0.062500      1.000000
  0.187500 -0.187500 -0.062500      1.000000
  0.312500 -0.187500 -0.062500      1.000000
  0.437500 -0.187500 -0.062500      1.000000
 -0.437500 -0.187500 -0.062500      1.000000
 -0.312500 -0.187500 -0.062500      1.000000
 -0.187500 -0.187500 -0.062500      1.000000
 -0.062500 -0.187500 -0.062500      1.000000
  0.062500 -0.062500 -0.062500      1.000000
  0.187500 -0.062500 -0.062500      1.000000
  0.312500 -0.062500 -0.062500      1.000000
  0.437500 -0.062500 -0.062500      1.000000
 -0.437500 -0.062500 -0.062500      1.000000
 -0.312500 -0.062500 -0.062500      1.000000
 -0.187500 -0.062500 -0.062500      1.000000
 -0.062500 -0.062500 -0.062500      1.000000
 
 Following cartesian coordinates:
            Coordinates               Weight
  0.011539  0.019986  0.004836      1.000000
  0.034616  0.033310  0.004836      1.000000
  0.057694  0.046634  0.004836      1.000000
  0.080772  0.059957  0.004836      1.000000
 -0.080772 -0.033310  0.004836      1.000000
 -0.057694 -0.019986  0.004836      1.000000
 -0.034616 -0.006662  0.004836      1.000000
 -0.011539  0.006662  0.004836      1.000000
  0.011539  0.046634  0.004836      1.000000
  0.034616  0.059957  0.004836      1.000000
  0.057694  0.073281  0.004836      1.000000
  0.080772  0.086605  0.004836      1.000000
 -0.080772 -0.006662  0.004836      1.000000
 -0.057694  0.006662  0.004836      1.000000
 -0.034616  0.019986  0.004836      1.000000
 -0.011539  0.033310  0.004836      1.000000
  0.011539  0.073281  0.004836      1.000000
  0.034616  0.086605  0.004836      1.000000
  0.057694  0.099929  0.004836      1.000000
  0.080772  0.113253  0.004836      1.000000
 -0.080772  0.019986  0.004836      1.000000
 -0.057694  0.033310  0.004836      1.000000
 -0.034616  0.046634  0.004836      1.000000
 -0.011539  0.059957  0.004836      1.000000
  0.011539  0.099929  0.004836      1.000000
  0.034616  0.113253  0.004836      1.000000
  0.057694  0.126577  0.004836      1.000000
  0.080772  0.139901  0.004836      1.000000
 -0.080772  0.046634  0.004836      1.000000
 -0.057694  0.059957  0.004836      1.000000
 -0.034616  0.073281  0.004836      1.000000
 -0.011539  0.086605  0.004836      1.000000
  0.011539 -0.086605  0.004836      1.000000
  0.034616 -0.073281  0.004836      1.000000
  0.057694 -0.059957  0.004836      1.000000
  0.080772 -0.046634  0.004836      1.000000
 -0.080772 -0.139901  0.004836      1.000000
 -0.057694 -0.126577  0.004836      1.000000
 -0.034616 -0.113253  0.004836      1.000000
 -0.011539 -0.099929  0.004836      1.000000
  0.011539 -0.059957  0.004836      1.000000
  0.034616 -0.046634  0.004836      1.000000
  0.057694 -0.033310  0.004836      1.000000
  0.080772 -0.019986  0.004836      1.000000
 -0.080772 -0.113253  0.004836      1.000000
 -0.057694 -0.099929  0.004836      1.000000
 -0.034616 -0.086605  0.004836      1.000000
 -0.011539 -0.073281  0.004836      1.000000
  0.011539 -0.033310  0.004836      1.000000
  0.034616 -0.019986  0.004836      1.000000
  0.057694 -0.006662  0.004836      1.000000
  0.080772  0.006662  0.004836      1.000000
 -0.080772 -0.086605  0.004836      1.000000
 -0.057694 -0.073281  0.004836      1.000000
 -0.034616 -0.059957  0.004836      1.000000
 -0.011539 -0.046634  0.004836      1.000000
  0.011539 -0.006662  0.004836      1.000000
  0.034616  0.006662  0.004836      1.000000
  0.057694  0.019986  0.004836      1.000000
  0.080772  0.033310  0.004836      1.000000
 -0.080772 -0.059957  0.004836      1.000000
 -0.057694 -0.046634  0.004836      1.000000
 -0.034616 -0.033310  0.004836      1.000000
 -0.011539 -0.019986  0.004836      1.000000
  0.011539  0.019986  0.014507      1.000000
  0.034616  0.033310  0.014507      1.000000
  0.057694  0.046634  0.014507      1.000000
  0.080772  0.059957  0.014507      1.000000
 -0.080772 -0.033310  0.014507      1.000000
 -0.057694 -0.019986  0.014507      1.000000
 -0.034616 -0.006662  0.014507      1.000000
 -0.011539  0.006662  0.014507      1.000000
  0.011539  0.046634  0.014507      1.000000
  0.034616  0.059957  0.014507      1.000000
  0.057694  0.073281  0.014507      1.000000
  0.080772  0.086605  0.014507      1.000000
 -0.080772 -0.006662  0.014507      1.000000
 -0.057694  0.006662  0.014507      1.000000
 -0.034616  0.019986  0.014507      1.000000
 -0.011539  0.033310  0.014507      1.000000
  0.011539  0.073281  0.014507      1.000000
  0.034616  0.086605  0.014507      1.000000
  0.057694  0.099929  0.014507      1.000000
  0.080772  0.113253  0.014507      1.000000
 -0.080772  0.019986  0.014507      1.000000
 -0.057694  0.033310  0.014507      1.000000
 -0.034616  0.046634  0.014507      1.000000
 -0.011539  0.059957  0.014507      1.000000
  0.011539  0.099929  0.014507      1.000000
  0.034616  0.113253  0.014507      1.000000
  0.057694  0.126577  0.014507      1.000000
  0.080772  0.139901  0.014507      1.000000
 -0.080772  0.046634  0.014507      1.000000
 -0.057694  0.059957  0.014507      1.000000
 -0.034616  0.073281  0.014507      1.000000
 -0.011539  0.086605  0.014507      1.000000
  0.011539 -0.086605  0.014507      1.000000
  0.034616 -0.073281  0.014507      1.000000
  0.057694 -0.059957  0.014507      1.000000
  0.080772 -0.046634  0.014507      1.000000
 -0.080772 -0.139901  0.014507      1.000000
 -0.057694 -0.126577  0.014507      1.000000
 -0.034616 -0.113253  0.014507      1.000000
 -0.011539 -0.099929  0.014507      1.000000
  0.011539 -0.059957  0.014507      1.000000
  0.034616 -0.046634  0.014507      1.000000
  0.057694 -0.033310  0.014507      1.000000
  0.080772 -0.019986  0.014507      1.000000
 -0.080772 -0.113253  0.014507      1.000000
 -0.057694 -0.099929  0.014507      1.000000
 -0.034616 -0.086605  0.014507      1.000000
 -0.011539 -0.073281  0.014507      1.000000
  0.011539 -0.033310  0.014507      1.000000
  0.034616 -0.019986  0.014507      1.000000
  0.057694 -0.006662  0.014507      1.000000
  0.080772  0.006662  0.014507      1.000000
 -0.080772 -0.086605  0.014507      1.000000
 -0.057694 -0.073281  0.014507      1.000000
 -0.034616 -0.059957  0.014507      1.000000
 -0.011539 -0.046634  0.014507      1.000000
  0.011539 -0.006662  0.014507      1.000000
  0.034616  0.006662  0.014507      1.000000
  0.057694  0.019986  0.014507      1.000000
  0.080772  0.033310  0.014507      1.000000
 -0.080772 -0.059957  0.014507      1.000000
 -0.057694 -0.046634  0.014507      1.000000
 -0.034616 -0.033310  0.014507      1.000000
 -0.011539 -0.019986  0.014507      1.000000
  0.011539  0.019986  0.024179      1.000000
  0.034616  0.033310  0.024179      1.000000
  0.057694  0.046634  0.024179      1.000000
  0.080772  0.059957  0.024179      1.000000
 -0.080772 -0.033310  0.024179      1.000000
 -0.057694 -0.019986  0.024179      1.000000
 -0.034616 -0.006662  0.024179      1.000000
 -0.011539  0.006662  0.024179      1.000000
  0.011539  0.046634  0.024179      1.000000
  0.034616  0.059957  0.024179      1.000000
  0.057694  0.073281  0.024179      1.000000
  0.080772  0.086605  0.024179      1.000000
 -0.080772 -0.006662  0.024179      1.000000
 -0.057694  0.006662  0.024179      1.000000
 -0.034616  0.019986  0.024179      1.000000
 -0.011539  0.033310  0.024179      1.000000
  0.011539  0.073281  0.024179      1.000000
  0.034616  0.086605  0.024179      1.000000
  0.057694  0.099929  0.024179      1.000000
  0.080772  0.113253  0.024179      1.000000
 -0.080772  0.019986  0.024179      1.000000
 -0.057694  0.033310  0.024179      1.000000
 -0.034616  0.046634  0.024179      1.000000
 -0.011539  0.059957  0.024179      1.000000
  0.011539  0.099929  0.024179      1.000000
  0.034616  0.113253  0.024179      1.000000
  0.057694  0.126577  0.024179      1.000000
  0.080772  0.139901  0.024179      1.000000
 -0.080772  0.046634  0.024179      1.000000
 -0.057694  0.059957  0.024179      1.000000
 -0.034616  0.073281  0.024179      1.000000
 -0.011539  0.086605  0.024179      1.000000
  0.011539 -0.086605  0.024179      1.000000
  0.034616 -0.073281  0.024179      1.000000
  0.057694 -0.059957  0.024179      1.000000
  0.080772 -0.046634  0.024179      1.000000
 -0.080772 -0.139901  0.024179      1.000000
 -0.057694 -0.126577  0.024179      1.000000
 -0.034616 -0.113253  0.024179      1.000000
 -0.011539 -0.099929  0.024179      1.000000
  0.011539 -0.059957  0.024179      1.000000
  0.034616 -0.046634  0.024179      1.000000
  0.057694 -0.033310  0.024179      1.000000
  0.080772 -0.019986  0.024179      1.000000
 -0.080772 -0.113253  0.024179      1.000000
 -0.057694 -0.099929  0.024179      1.000000
 -0.034616 -0.086605  0.024179      1.000000
 -0.011539 -0.073281  0.024179      1.000000
  0.011539 -0.033310  0.024179      1.000000
  0.034616 -0.019986  0.024179      1.000000
  0.057694 -0.006662  0.024179      1.000000
  0.080772  0.006662  0.024179      1.000000
 -0.080772 -0.086605  0.024179      1.000000
 -0.057694 -0.073281  0.024179      1.000000
 -0.034616 -0.059957  0.024179      1.000000
 -0.011539 -0.046634  0.024179      1.000000
  0.011539 -0.006662  0.024179      1.000000
  0.034616  0.006662  0.024179      1.000000
  0.057694  0.019986  0.024179      1.000000
  0.080772  0.033310  0.024179      1.000000
 -0.080772 -0.059957  0.024179      1.000000
 -0.057694 -0.046634  0.024179      1.000000
 -0.034616 -0.033310  0.024179      1.000000
 -0.011539 -0.019986  0.024179      1.000000
  0.011539  0.019986  0.033850      1.000000
  0.034616  0.033310  0.033850      1.000000
  0.057694  0.046634  0.033850      1.000000
  0.080772  0.059957  0.033850      1.000000
 -0.080772 -0.033310  0.033850      1.000000
 -0.057694 -0.019986  0.033850      1.000000
 -0.034616 -0.006662  0.033850      1.000000
 -0.011539  0.006662  0.033850      1.000000
  0.011539  0.046634  0.033850      1.000000
  0.034616  0.059957  0.033850      1.000000
  0.057694  0.073281  0.033850      1.000000
  0.080772  0.086605  0.033850      1.000000
 -0.080772 -0.006662  0.033850      1.000000
 -0.057694  0.006662  0.033850      1.000000
 -0.034616  0.019986  0.033850      1.000000
 -0.011539  0.033310  0.033850      1.000000
  0.011539  0.073281  0.033850      1.000000
  0.034616  0.086605  0.033850      1.000000
  0.057694  0.099929  0.033850      1.000000
  0.080772  0.113253  0.033850      1.000000
 -0.080772  0.019986  0.033850      1.000000
 -0.057694  0.033310  0.033850      1.000000
 -0.034616  0.046634  0.033850      1.000000
 -0.011539  0.059957  0.033850      1.000000
  0.011539  0.099929  0.033850      1.000000
  0.034616  0.113253  0.033850      1.000000
  0.057694  0.126577  0.033850      1.000000
  0.080772  0.139901  0.033850      1.000000
 -0.080772  0.046634  0.033850      1.000000
 -0.057694  0.059957  0.033850      1.000000
 -0.034616  0.073281  0.033850      1.000000
 -0.011539  0.086605  0.033850      1.000000
  0.011539 -0.086605  0.033850      1.000000
  0.034616 -0.073281  0.033850      1.000000
  0.057694 -0.059957  0.033850      1.000000
  0.080772 -0.046634  0.033850      1.000000
 -0.080772 -0.139901  0.033850      1.000000
 -0.057694 -0.126577  0.033850      1.000000
 -0.034616 -0.113253  0.033850      1.000000
 -0.011539 -0.099929  0.033850      1.000000
  0.011539 -0.059957  0.033850      1.000000
  0.034616 -0.046634  0.033850      1.000000
  0.057694 -0.033310  0.033850      1.000000
  0.080772 -0.019986  0.033850      1.000000
 -0.080772 -0.113253  0.033850      1.000000
 -0.057694 -0.099929  0.033850      1.000000
 -0.034616 -0.086605  0.033850      1.000000
 -0.011539 -0.073281  0.033850      1.000000
  0.011539 -0.033310  0.033850      1.000000
  0.034616 -0.019986  0.033850      1.000000
  0.057694 -0.006662  0.033850      1.000000
  0.080772  0.006662  0.033850      1.000000
 -0.080772 -0.086605  0.033850      1.000000
 -0.057694 -0.073281  0.033850      1.000000
 -0.034616 -0.059957  0.033850      1.000000
 -0.011539 -0.046634  0.033850      1.000000
  0.011539 -0.006662  0.033850      1.000000
  0.034616  0.006662  0.033850      1.000000
  0.057694  0.019986  0.033850      1.000000
  0.080772  0.033310  0.033850      1.000000
 -0.080772 -0.059957  0.033850      1.000000
 -0.057694 -0.046634  0.033850      1.000000
 -0.034616 -0.033310  0.033850      1.000000
 -0.011539 -0.019986  0.033850      1.000000
  0.011539  0.019986 -0.033850      1.000000
  0.034616  0.033310 -0.033850      1.000000
  0.057694  0.046634 -0.033850      1.000000
  0.080772  0.059957 -0.033850      1.000000
 -0.080772 -0.033310 -0.033850      1.000000
 -0.057694 -0.019986 -0.033850      1.000000
 -0.034616 -0.006662 -0.033850      1.000000
 -0.011539  0.006662 -0.033850      1.000000
  0.011539  0.046634 -0.033850      1.000000
  0.034616  0.059957 -0.033850      1.000000
  0.057694  0.073281 -0.033850      1.000000
  0.080772  0.086605 -0.033850      1.000000
 -0.080772 -0.006662 -0.033850      1.000000
 -0.057694  0.006662 -0.033850      1.000000
 -0.034616  0.019986 -0.033850      1.000000
 -0.011539  0.033310 -0.033850      1.000000
  0.011539  0.073281 -0.033850      1.000000
  0.034616  0.086605 -0.033850      1.000000
  0.057694  0.099929 -0.033850      1.000000
  0.080772  0.113253 -0.033850      1.000000
 -0.080772  0.019986 -0.033850      1.000000
 -0.057694  0.033310 -0.033850      1.000000
 -0.034616  0.046634 -0.033850      1.000000
 -0.011539  0.059957 -0.033850      1.000000
  0.011539  0.099929 -0.033850      1.000000
  0.034616  0.113253 -0.033850      1.000000
  0.057694  0.126577 -0.033850      1.000000
  0.080772  0.139901 -0.033850      1.000000
 -0.080772  0.046634 -0.033850      1.000000
 -0.057694  0.059957 -0.033850      1.000000
 -0.034616  0.073281 -0.033850      1.000000
 -0.011539  0.086605 -0.033850      1.000000
  0.011539 -0.086605 -0.033850      1.000000
  0.034616 -0.073281 -0.033850      1.000000
  0.057694 -0.059957 -0.033850      1.000000
  0.080772 -0.046634 -0.033850      1.000000
 -0.080772 -0.139901 -0.033850      1.000000
 -0.057694 -0.126577 -0.033850      1.000000
 -0.034616 -0.113253 -0.033850      1.000000
 -0.011539 -0.099929 -0.033850      1.000000
  0.011539 -0.059957 -0.033850      1.000000
  0.034616 -0.046634 -0.033850      1.000000
  0.057694 -0.033310 -0.033850      1.000000
  0.080772 -0.019986 -0.033850      1.000000
 -0.080772 -0.113253 -0.033850      1.000000
 -0.057694 -0.099929 -0.033850      1.000000
 -0.034616 -0.086605 -0.033850      1.000000
 -0.011539 -0.073281 -0.033850      1.000000
  0.011539 -0.033310 -0.033850      1.000000
  0.034616 -0.019986 -0.033850      1.000000
  0.057694 -0.006662 -0.033850      1.000000
  0.080772  0.006662 -0.033850      1.000000
 -0.080772 -0.086605 -0.033850      1.000000
 -0.057694 -0.073281 -0.033850      1.000000
 -0.034616 -0.059957 -0.033850      1.000000
 -0.011539 -0.046634 -0.033850      1.000000
  0.011539 -0.006662 -0.033850      1.000000
  0.034616  0.006662 -0.033850      1.000000
  0.057694  0.019986 -0.033850      1.000000
  0.080772  0.033310 -0.033850      1.000000
 -0.080772 -0.059957 -0.033850      1.000000
 -0.057694 -0.046634 -0.033850      1.000000
 -0.034616 -0.033310 -0.033850      1.000000
 -0.011539 -0.019986 -0.033850      1.000000
  0.011539  0.019986 -0.024179      1.000000
  0.034616  0.033310 -0.024179      1.000000
  0.057694  0.046634 -0.024179      1.000000
  0.080772  0.059957 -0.024179      1.000000
 -0.080772 -0.033310 -0.024179      1.000000
 -0.057694 -0.019986 -0.024179      1.000000
 -0.034616 -0.006662 -0.024179      1.000000
 -0.011539  0.006662 -0.024179      1.000000
  0.011539  0.046634 -0.024179      1.000000
  0.034616  0.059957 -0.024179      1.000000
  0.057694  0.073281 -0.024179      1.000000
  0.080772  0.086605 -0.024179      1.000000
 -0.080772 -0.006662 -0.024179      1.000000
 -0.057694  0.006662 -0.024179      1.000000
 -0.034616  0.019986 -0.024179      1.000000
 -0.011539  0.033310 -0.024179      1.000000
  0.011539  0.073281 -0.024179      1.000000
  0.034616  0.086605 -0.024179      1.000000
  0.057694  0.099929 -0.024179      1.000000
  0.080772  0.113253 -0.024179      1.000000
 -0.080772  0.019986 -0.024179      1.000000
 -0.057694  0.033310 -0.024179      1.000000
 -0.034616  0.046634 -0.024179      1.000000
 -0.011539  0.059957 -0.024179      1.000000
  0.011539  0.099929 -0.024179      1.000000
  0.034616  0.113253 -0.024179      1.000000
  0.057694  0.126577 -0.024179      1.000000
  0.080772  0.139901 -0.024179      1.000000
 -0.080772  0.046634 -0.024179      1.000000
 -0.057694  0.059957 -0.024179      1.000000
 -0.034616  0.073281 -0.024179      1.000000
 -0.011539  0.086605 -0.024179      1.000000
  0.011539 -0.086605 -0.024179      1.000000
  0.034616 -0.073281 -0.024179      1.000000
  0.057694 -0.059957 -0.024179      1.000000
  0.080772 -0.046634 -0.024179      1.000000
 -0.080772 -0.139901 -0.024179      1.000000
 -0.057694 -0.126577 -0.024179      1.000000
 -0.034616 -0.113253 -0.024179      1.000000
 -0.011539 -0.099929 -0.024179      1.000000
  0.011539 -0.059957 -0.024179      1.000000
  0.034616 -0.046634 -0.024179      1.000000
  0.057694 -0.033310 -0.024179      1.000000
  0.080772 -0.019986 -0.024179      1.000000
 -0.080772 -0.113253 -0.024179      1.000000
 -0.057694 -0.099929 -0.024179      1.000000
 -0.034616 -0.086605 -0.024179      1.000000
 -0.011539 -0.073281 -0.024179      1.000000
  0.011539 -0.033310 -0.024179      1.000000
  0.034616 -0.019986 -0.024179      1.000000
  0.057694 -0.006662 -0.024179      1.000000
  0.080772  0.006662 -0.024179      1.000000
 -0.080772 -0.086605 -0.024179      1.000000
 -0.057694 -0.073281 -0.024179      1.000000
 -0.034616 -0.059957 -0.024179      1.000000
 -0.011539 -0.046634 -0.024179      1.000000
  0.011539 -0.006662 -0.024179      1.000000
  0.034616  0.006662 -0.024179      1.000000
  0.057694  0.019986 -0.024179      1.000000
  0.080772  0.033310 -0.024179      1.000000
 -0.080772 -0.059957 -0.024179      1.000000
 -0.057694 -0.046634 -0.024179      1.000000
 -0.034616 -0.033310 -0.024179      1.000000
 -0.011539 -0.019986 -0.024179      1.000000
  0.011539  0.019986 -0.014507      1.000000
  0.034616  0.033310 -0.014507      1.000000
  0.057694  0.046634 -0.014507      1.000000
  0.080772  0.059957 -0.014507      1.000000
 -0.080772 -0.033310 -0.014507      1.000000
 -0.057694 -0.019986 -0.014507      1.000000
 -0.034616 -0.006662 -0.014507      1.000000
 -0.011539  0.006662 -0.014507      1.000000
  0.011539  0.046634 -0.014507      1.000000
  0.034616  0.059957 -0.014507      1.000000
  0.057694  0.073281 -0.014507      1.000000
  0.080772  0.086605 -0.014507      1.000000
 -0.080772 -0.006662 -0.014507      1.000000
 -0.057694  0.006662 -0.014507      1.000000
 -0.034616  0.019986 -0.014507      1.000000
 -0.011539  0.033310 -0.014507      1.000000
  0.011539  0.073281 -0.014507      1.000000
  0.034616  0.086605 -0.014507      1.000000
  0.057694  0.099929 -0.014507      1.000000
  0.080772  0.113253 -0.014507      1.000000
 -0.080772  0.019986 -0.014507      1.000000
 -0.057694  0.033310 -0.014507      1.000000
 -0.034616  0.046634 -0.014507      1.000000
 -0.011539  0.059957 -0.014507      1.000000
  0.011539  0.099929 -0.014507      1.000000
  0.034616  0.113253 -0.014507      1.000000
  0.057694  0.126577 -0.014507      1.000000
  0.080772  0.139901 -0.014507      1.000000
 -0.080772  0.046634 -0.014507      1.000000
 -0.057694  0.059957 -0.014507      1.000000
 -0.034616  0.073281 -0.014507      1.000000
 -0.011539  0.086605 -0.014507      1.000000
  0.011539 -0.086605 -0.014507      1.000000
  0.034616 -0.073281 -0.014507      1.000000
  0.057694 -0.059957 -0.014507      1.000000
  0.080772 -0.046634 -0.014507      1.000000
 -0.080772 -0.139901 -0.014507      1.000000
 -0.057694 -0.126577 -0.014507      1.000000
 -0.034616 -0.113253 -0.014507      1.000000
 -0.011539 -0.099929 -0.014507      1.000000
  0.011539 -0.059957 -0.014507      1.000000
  0.034616 -0.046634 -0.014507      1.000000
  0.057694 -0.033310 -0.014507      1.000000
  0.080772 -0.019986 -0.014507      1.000000
 -0.080772 -0.113253 -0.014507      1.000000
 -0.057694 -0.099929 -0.014507      1.000000
 -0.034616 -0.086605 -0.014507      1.000000
 -0.011539 -0.073281 -0.014507      1.000000
  0.011539 -0.033310 -0.014507      1.000000
  0.034616 -0.019986 -0.014507      1.000000
  0.057694 -0.006662 -0.014507      1.000000
  0.080772  0.006662 -0.014507      1.000000
 -0.080772 -0.086605 -0.014507      1.000000
 -0.057694 -0.073281 -0.014507      1.000000
 -0.034616 -0.059957 -0.014507      1.000000
 -0.011539 -0.046634 -0.014507      1.000000
  0.011539 -0.006662 -0.014507      1.000000
  0.034616  0.006662 -0.014507      1.000000
  0.057694  0.019986 -0.014507      1.000000
  0.080772  0.033310 -0.014507      1.000000
 -0.080772 -0.059957 -0.014507      1.000000
 -0.057694 -0.046634 -0.014507      1.000000
 -0.034616 -0.033310 -0.014507      1.000000
 -0.011539 -0.019986 -0.014507      1.000000
  0.011539  0.019986 -0.004836      1.000000
  0.034616  0.033310 -0.004836      1.000000
  0.057694  0.046634 -0.004836      1.000000
  0.080772  0.059957 -0.004836      1.000000
 -0.080772 -0.033310 -0.004836      1.000000
 -0.057694 -0.019986 -0.004836      1.000000
 -0.034616 -0.006662 -0.004836      1.000000
 -0.011539  0.006662 -0.004836      1.000000
  0.011539  0.046634 -0.004836      1.000000
  0.034616  0.059957 -0.004836      1.000000
  0.057694  0.073281 -0.004836      1.000000
  0.080772  0.086605 -0.004836      1.000000
 -0.080772 -0.006662 -0.004836      1.000000
 -0.057694  0.006662 -0.004836      1.000000
 -0.034616  0.019986 -0.004836      1.000000
 -0.011539  0.033310 -0.004836      1.000000
  0.011539  0.073281 -0.004836      1.000000
  0.034616  0.086605 -0.004836      1.000000
  0.057694  0.099929 -0.004836      1.000000
  0.080772  0.113253 -0.004836      1.000000
 -0.080772  0.019986 -0.004836      1.000000
 -0.057694  0.033310 -0.004836      1.000000
 -0.034616  0.046634 -0.004836      1.000000
 -0.011539  0.059957 -0.004836      1.000000
  0.011539  0.099929 -0.004836      1.000000
  0.034616  0.113253 -0.004836      1.000000
  0.057694  0.126577 -0.004836      1.000000
  0.080772  0.139901 -0.004836      1.000000
 -0.080772  0.046634 -0.004836      1.000000
 -0.057694  0.059957 -0.004836      1.000000
 -0.034616  0.073281 -0.004836      1.000000
 -0.011539  0.086605 -0.004836      1.000000
  0.011539 -0.086605 -0.004836      1.000000
  0.034616 -0.073281 -0.004836      1.000000
  0.057694 -0.059957 -0.004836      1.000000
  0.080772 -0.046634 -0.004836      1.000000
 -0.080772 -0.139901 -0.004836      1.000000
 -0.057694 -0.126577 -0.004836      1.000000
 -0.034616 -0.113253 -0.004836      1.000000
 -0.011539 -0.099929 -0.004836      1.000000
  0.011539 -0.059957 -0.004836      1.000000
  0.034616 -0.046634 -0.004836      1.000000
  0.057694 -0.033310 -0.004836      1.000000
  0.080772 -0.019986 -0.004836      1.000000
 -0.080772 -0.113253 -0.004836      1.000000
 -0.057694 -0.099929 -0.004836      1.000000
 -0.034616 -0.086605 -0.004836      1.000000
 -0.011539 -0.073281 -0.004836      1.000000
  0.011539 -0.033310 -0.004836      1.000000
  0.034616 -0.019986 -0.004836      1.000000
  0.057694 -0.006662 -0.004836      1.000000
  0.080772  0.006662 -0.004836      1.000000
 -0.080772 -0.086605 -0.004836      1.000000
 -0.057694 -0.073281 -0.004836      1.000000
 -0.034616 -0.059957 -0.004836      1.000000
 -0.011539 -0.046634 -0.004836      1.000000
  0.011539 -0.006662 -0.004836      1.000000
  0.034616  0.006662 -0.004836      1.000000
  0.057694  0.019986 -0.004836      1.000000
  0.080772  0.033310 -0.004836      1.000000
 -0.080772 -0.059957 -0.004836      1.000000
 -0.057694 -0.046634 -0.004836      1.000000
 -0.034616 -0.033310 -0.004836      1.000000
 -0.011539 -0.019986 -0.004836      1.000000
 


--------------------------------------------------------------------------------------------------------




 Dimension of arrays:
   k-points           NKPTS =    512   k-points in BZ     NKDIM =    512   number of bands    NBANDS=    136
   number of dos      NEDOS =    301   number of ions     NIONS =     29
   non local maximal  LDIM  =      8   non local SUM 2l+1 LMDIM =     32
   total plane-waves  NPLWV = 248832
   max r-space proj   IRMAX =  13224   max aug-charges    IRDMAX= 316916
   dimension x,y,z NGX =    48 NGY =   48 NGZ =  108
   dimension x,y,z NGXF=    96 NGYF=   96 NGZF=  216
   support grid    NGXF=   192 NGYF=  192 NGZF=  432
   ions per type =               6   6  17
   NGX,Y,Z   is equivalent  to a cutoff of  14.73, 14.73, 13.89 a.u.
   NGXF,Y,Z  is equivalent  to a cutoff of  29.46, 29.46, 27.78 a.u.

 SYSTEM =  Default                                 
 POSCAR =  La6 Ni6 O17                             

 Startparameter for this run:
   NWRITE =      2    write-flag & timer
   PREC   = accura    normal or accurate (medium, high low for compatibility)
   ISTART =      0    job   : 0-new  1-cont  2-samecut
   ICHARG =      2    charge: 1-file 2-atom 10-const
   ISPIN  =      1    spin polarized calculation?
   LNONCOLLINEAR =      F non collinear calculations
   LSORBIT =      F    spin-orbit coupling
   INIWAV =      1    electr: 0-lowe 1-rand  2-diag
   LASPH  =      T    aspherical Exc in radial PAW
   METAGGA=      F    non-selfconsistent MetaGGA calc.

 Electronic Relaxation 1
   ENCUT  =  600.0 eV  44.10 Ry    6.64 a.u.  10.82 10.82 25.81*2*pi/ulx,y,z
   ENINI  =  600.0     initial cutoff
   ENAUG  =  605.4 eV  augmentation charge cutoff
   NELM   =    100;   NELMIN=  8; NELMDL= -5     # of ELM steps 
   EDIFF  = 0.1E-07   stopping-criterion for ELM
   LREAL  =      T    real-space projection
   NLSPLINE    = F    spline interpolate recip. space projectors
   LCOMPAT=      F    compatible to vasp.4.4
   GGA_COMPAT  = T    GGA compatible to vasp.4.4-vasp.4.6
   LMAXPAW     = -100 max onsite density
   LMAXMIX     =    4 max onsite mixed and CHGCAR
   VOSKOWN=      0    Vosko Wilk Nusair interpolation
   ROPT   =   -0.00025  -0.00025  -0.00025
 Ionic relaxation
   EDIFFG = 0.1E-06   stopping-criterion for IOM
   NSW    =      0    number of steps for IOM
   NBLOCK =      1;   KBLOCK =      1    inner block; outer block 
   IBRION =     -1    ionic relax: 0-MD 1-quasi-New 2-CG
   NFREE  =      0    steps in history (QN), initial steepest desc. (CG)
   ISIF   =      2    stress and relaxation
   IWAVPR =     10    prediction:  0-non 1-charg 2-wave 3-comb
   ISYM   =     -1    0-nonsym 1-usesym 2-fastsym
   LCORR  =      T    Harris-Foulkes like correction to forces

   POTIM  = 0.5000    time-step for ionic-motion
   TEIN   =    0.0    initial temperature
   TEBEG  =    0.0;   TEEND  =   0.0 temperature during run
   SMASS  =  -3.00    Nose mass-parameter (am)
   estimated Nose-frequenzy (Omega)   =  0.10E-29 period in steps =****** mass=  -0.670E-27a.u.
   SCALEE = 1.0000    scale energy and forces
   NPACO  =    256;   APACO  = 16.0  distance and # of slots for P.C.
   PSTRESS=    0.0 pullay stress

  Mass of Ions in am
   POMASS = 138.90 58.69 16.00
  Ionic Valenz
   ZVAL   =  11.00 10.00  6.00
  Atomic Wigner-Seitz radii
   RWIGS  =  -1.00 -1.00 -1.00
  virtual crystal weights 
   VCA    =   1.00  1.00  1.00
   NELECT =     228.0000    total number of electrons
   NUPDOWN=      -1.0000    fix difference up-down

 DOS related values:
   EMIN   =  10.00;   EMAX   =-10.00  energy-range for DOS
   EFERMI =   0.00
   ISMEAR =     2;   SIGMA  =   0.20  broadening in eV -4-tet -1-fermi 0-gaus

 Electronic relaxation 2 (details)
   IALGO  =     38    algorithm
   LDIAG  =      T    sub-space diagonalisation (order eigenvalues)
   LSUBROT=      F    optimize rotation matrix (better conditioning)
   TURBO    =      0    0=normal 1=particle mesh
   IRESTART =      0    0=no restart 2=restart with 2 vectors
   NREBOOT  =      0    no. of reboots
   NMIN     =      0    reboot dimension
   EREF     =   0.00    reference energy to select bands
   IMIX   =      4    mixing-type and parameters
     AMIX     =   0.40;   BMIX     =  1.00
     AMIX_MAG =   1.60;   BMIX_MAG =  1.00
     AMIN     =   0.10
     WC   =   100.;   INIMIX=   1;  MIXPRE=   1;  MAXMIX= -45

 Intra band minimization:
   WEIMIN = 0.0000     energy-eigenvalue tresh-hold
   EBREAK =  0.18E-10  absolut break condition
   DEPER  =   0.30     relativ break condition  

   TIME   =   0.40     timestep for ELM

  volume/ion in A,a.u.               =      11.32        76.42
  Fermi-wavevector in a.u.,A,eV,Ry     =   1.449629  2.739402 28.591621  2.101425
  Thomas-Fermi vector in A             =   2.567334
 
 Write flags
   LWAVE        =      F    write WAVECAR
   LDOWNSAMPLE  =      F    k-point downsampling of WAVECAR
   LCHARG       =      T    write CHGCAR
   LVTOT        =      F    write LOCPOT, total local potential
   LVHAR        =      F    write LOCPOT, Hartree potential only
   LELF         =      F    write electronic localiz. function (ELF)
   LORBIT       =     11    0 simple, 1 ext, 2 COOP (PROOUT), +10 PAW based schemes


 Dipole corrections
   LMONO  =      F    monopole corrections only (constant potential shift)
   LDIPOL =      F    correct potential (dipole corrections)
   IDIPOL =      0    1-x, 2-y, 3-z, 4-all directions 
   EPSILON=  1.0000000 bulk dielectric constant

 Exchange correlation treatment:
   GGA     =    --    GGA type
   LEXCH   =     8    internal setting for exchange type
   VOSKOWN=      0    Vosko Wilk Nusair interpolation
   LHFCALC =     F    Hartree Fock is set to
   LHFONE  =     F    Hartree Fock one center treatment
   AEXX    =    0.0000 exact exchange contribution

 Linear response parameters
   LEPSILON=     F    determine dielectric tensor
   LRPA    =     F    only Hartree local field effects (RPA)
   LNABLA  =     F    use nabla operator in PAW spheres
   LVEL    =     F    velocity operator in full k-point grid
   LINTERFAST=   F  fast interpolation
   KINTER  =     0    interpolate to denser k-point grid
   CSHIFT  =0.1000    complex shift for real part using Kramers Kronig
   OMEGAMAX=  -1.0    maximum frequency
   DEG_THRESHOLD= 0.2000000E-02 threshold for treating states as degnerate
   RTIME   =   -0.100 relaxation time in fs
  (WPLASMAI=    0.000 imaginary part of plasma frequency in eV, 0.658/RTIME)
   DFIELD  = 0.0000000 0.0000000 0.0000000 field for delta impulse in time
 
 Orbital magnetization related:
   ORBITALMAG=     F  switch on orbital magnetization
   LCHIMAG   =     F  perturbation theory with respect to B field
   DQ        =  0.001000  dq finite difference perturbation B field
   LLRAUG    =     F  two centre corrections for induced B field



--------------------------------------------------------------------------------------------------------


 Static calculation
 charge density and potential will be updated during run
 non-spin polarized calculation
 Variant of blocked Davidson
 Davidson routine will perform the subspace rotation
 perform sub-space diagonalisation
    after iterative eigenvector-optimisation
 modified Broyden-mixing scheme, WC =      100.0
 initial mixing is a Kerker type mixing with AMIX =  0.4000 and BMIX =      1.0000
 Hartree-type preconditioning will be used
 using additional bands           22
 real space projection scheme for non local part
 use partial core corrections
 calculate Harris-corrections to forces 
   (improved forces if not selfconsistent)
 use gradient corrections 
 use of overlap-Matrix (Vanderbilt PP)
 Methfessel and Paxton  Order N= 2 SIGMA  =   0.20


--------------------------------------------------------------------------------------------------------


  energy-cutoff  :      600.00
  volume of cell :      328.39
      direct lattice vectors                 reciprocal lattice vectors
     5.416500000  0.000000000  0.000000000     0.184621065  0.106591035  0.000000000
    -2.708250000  4.690826000  0.000000000     0.000000000  0.213182071  0.000000000
     0.000000000  0.000000000 12.924700000     0.000000000  0.000000000  0.077371235

  length of vectors
     5.416500000  5.416499481 12.924700000     0.213182050  0.213182071  0.077371235


 
 k-points in units of 2pi/SCALE and weight: Automatic mesh                          
   0.01153882  0.01998582  0.00483570       0.002
   0.03461645  0.03330970  0.00483570       0.002
   0.05769408  0.04663358  0.00483570       0.002
   0.08077172  0.05995746  0.00483570       0.002
  -0.08077172 -0.03330970  0.00483570       0.002
  -0.05769408 -0.01998582  0.00483570       0.002
  -0.03461645 -0.00666194  0.00483570       0.002
  -0.01153882  0.00666194  0.00483570       0.002
   0.01153882  0.04663358  0.00483570       0.002
   0.03461645  0.05995746  0.00483570       0.002
   0.05769408  0.07328134  0.00483570       0.002
   0.08077172  0.08660522  0.00483570       0.002
  -0.08077172 -0.00666194  0.00483570       0.002
  -0.05769408  0.00666194  0.00483570       0.002
  -0.03461645  0.01998582  0.00483570       0.002
  -0.01153882  0.03330970  0.00483570       0.002
   0.01153882  0.07328134  0.00483570       0.002
   0.03461645  0.08660522  0.00483570       0.002
   0.05769408  0.09992910  0.00483570       0.002
   0.08077172  0.11325298  0.00483570       0.002
  -0.08077172  0.01998582  0.00483570       0.002
  -0.05769408  0.03330970  0.00483570       0.002
  -0.03461645  0.04663358  0.00483570       0.002
  -0.01153882  0.05995746  0.00483570       0.002
   0.01153882  0.09992910  0.00483570       0.002
   0.03461645  0.11325298  0.00483570       0.002
   0.05769408  0.12657685  0.00483570       0.002
   0.08077172  0.13990073  0.00483570       0.002
  -0.08077172  0.04663358  0.00483570       0.002
  -0.05769408  0.05995746  0.00483570       0.002
  -0.03461645  0.07328134  0.00483570       0.002
  -0.01153882  0.08660522  0.00483570       0.002
   0.01153882 -0.08660522  0.00483570       0.002
   0.03461645 -0.07328134  0.00483570       0.002
   0.05769408 -0.05995746  0.00483570       0.002
   0.08077172 -0.04663358  0.00483570       0.002
  -0.08077172 -0.13990073  0.00483570       0.002
  -0.05769408 -0.12657685  0.00483570       0.002
  -0.03461645 -0.11325298  0.00483570       0.002
  -0.01153882 -0.09992910  0.00483570       0.002
   0.01153882 -0.05995746  0.00483570       0.002
   0.03461645 -0.04663358  0.00483570       0.002
   0.05769408 -0.03330970  0.00483570       0.002
   0.08077172 -0.01998582  0.00483570       0.002
  -0.08077172 -0.11325298  0.00483570       0.002
  -0.05769408 -0.09992910  0.00483570       0.002
  -0.03461645 -0.08660522  0.00483570       0.002
  -0.01153882 -0.07328134  0.00483570       0.002
   0.01153882 -0.03330970  0.00483570       0.002
   0.03461645 -0.01998582  0.00483570       0.002
   0.05769408 -0.00666194  0.00483570       0.002
   0.08077172  0.00666194  0.00483570       0.002
  -0.08077172 -0.08660522  0.00483570       0.002
  -0.05769408 -0.07328134  0.00483570       0.002
  -0.03461645 -0.05995746  0.00483570       0.002
[...]
     55       3.4483      2.00000
     56       3.5080      2.00000
     57       3.5135      2.00000
     58       3.6018      2.00000
     59       3.6440      2.00000
     60       3.7063      2.00000
     61       3.7339      2.00000
     62       3.7670      2.00000
     63       4.0294      2.00000
     64       4.0859      2.00000
     65       4.2009      2.00000
     66       4.2573      2.00000
     67       4.3727      2.00000
     68       4.4375      2.00000
     69       4.4895      2.00000
     70       4.5836      2.00000
     71       4.7022      2.00000
     72       4.7580      2.00000
     73       4.9124      2.00000
     74       5.0027      2.00000
     75       5.1604      2.00000
     76       5.2510      2.00000
     77       5.4066      2.00000
     78       5.5110      2.00000
     79       5.7249      2.00000
     80       5.7667      2.00000
     81       5.8521      2.00000
     82       5.9013      2.00000
     83       6.0412      2.00000
     84       6.0644      2.00000
     85       6.1647      2.00000
     86       6.2326      2.00000
     87       6.2650      2.00000
     88       6.3721      2.00000
     89       6.5018      2.00000
     90       6.6699      2.00000
     91       6.8485      2.00000
     92       6.9188      2.00000
     93       7.0814      2.00000
     94       7.2373      2.00000
     95       7.2761      2.00000
     96       7.4379      2.00000
     97       7.5261      2.00000
     98       7.5518      2.00000
     99       7.5988      2.00000
    100       7.6200      2.00000
    101       7.6549      2.00000
    102       7.6886      2.00000
    103       7.7015      2.00000
    104       7.7302      2.00000
    105       7.7702      2.00000
    106       7.8238      2.00000
    107       7.8552      2.00000
    108       7.8947      1.99999
    109       7.9851      1.99992
    110       8.0421      1.99963
    111       8.0879      1.99893
    112       8.2288      1.99111
    113       8.4849      2.09909
    114       8.5851      1.72469
    115       8.7275      0.35895
    116       8.9864     -0.00669
    117       9.2906      0.00030
    118       9.6372      0.00000
    119       9.8288      0.00000
    120      10.2432      0.00000
    121      10.4515      0.00000
    122      10.6042      0.00000
    123      11.2144      0.00000
    124      11.7341      0.00000
    125      11.8235      0.00000
    126      11.8644      0.00000
    127      11.9196      0.00000
    128      11.9926      0.00000
    129      12.0161      0.00000
    130      12.0547      0.00000
    131      12.2051      0.00000
    132      12.2318      0.00000
    133      12.2721      0.00000
    134      12.2914      0.00000
    135      12.3080      0.00000
    136      12.3294      0.00000

 k-point   332 :       0.4375    0.1875   -0.3125
  band No.  band energies     occupation 
      1     -23.0204      2.00000
      2     -22.6441      2.00000
      3     -22.6423      2.00000
      4     -22.3449      2.00000
      5     -22.3371      2.00000
      6     -22.2843      2.00000
      7     -10.8004      2.00000
      8     -10.7161      2.00000
      9     -10.5741      2.00000
     10     -10.5086      2.00000
     11     -10.4066      2.00000
     12     -10.3192      2.00000
     13      -9.8692      2.00000
     14      -9.7472      2.00000
     15      -9.6956      2.00000
     16      -9.5730      2.00000
     17      -9.4915      2.00000
     18      -9.4538      2.00000
     19      -9.2328      2.00000
     20      -9.1301      2.00000
     21      -9.0292      2.00000
     22      -8.9945      2.00000
     23      -8.8805      2.00000
     24      -6.7211      2.00000
     25      -6.5627      2.00000
     26      -6.4008      2.00000
     27      -6.2846      2.00000
     28      -6.1474      2.00000
     29      -6.0989      2.00000
     30      -6.0349      2.00000
     31      -5.9496      2.00000
     32      -5.8521      2.00000
     33      -5.8022      2.00000
     34      -5.6751      2.00000
     35      -5.5986      2.00000
     36      -5.5612      2.00000
     37      -5.5181      2.00000
     38      -5.3730      2.00000
     39      -5.3364      2.00000
     40      -5.2953      2.00000
     41      -5.1433      2.00000
     42       2.0314      2.00000
     43       2.0800      2.00000
     44       2.2209      2.00000
     45       2.2582      2.00000
     46       2.3704      2.00000
     47       2.3993      2.00000
     48       2.9936      2.00000
     49       3.1540      2.00000
     50       3.2123      2.00000
     51       3.2829      2.00000
     52       3.3286      2.00000
     53       3.3693      2.00000
     54       3.4007      2.00000
     55       3.4427      2.00000
     56       3.4902      2.00000
     57       3.5320      2.00000
     58       3.5774      2.00000
     59       3.6275      2.00000
     60       3.7387      2.00000
     61       3.7999      2.00000
     62       3.8123      2.00000
     63       3.8816      2.00000
     64       3.9665      2.00000
     65       4.2526      2.00000
     66       4.3284      2.00000
     67       4.3558      2.00000
     68       4.4320      2.00000
     69       4.4930      2.00000
     70       4.5673      2.00000
     71       4.6390      2.00000
     72       4.7250      2.00000
     73       4.8193      2.00000
     74       4.9724      2.00000
     75       5.1838      2.00000
     76       5.2873      2.00000
     77       5.4446      2.00000
     78       5.5545      2.00000
     79       5.6431      2.00000
     80       5.6605      2.00000
     81       5.7569      2.00000
     82       5.8769      2.00000
     83       5.9763      2.00000
     84       6.0710      2.00000
     85       6.1184      2.00000
     86       6.2029      2.00000
     87       6.2829      2.00000
     88       6.4081      2.00000
     89       6.5093      2.00000
     90       6.6905      2.00000
     91       6.8017      2.00000
     92       6.9336      2.00000
     93       7.0104      2.00000
     94       7.3231      2.00000
     95       7.4158      2.00000
     96       7.4843      2.00000
     97       7.5004      2.00000
     98       7.5368      2.00000
     99       7.5624      2.00000
    100       7.5941      2.00000
    101       7.6372      2.00000
    102       7.6560      2.00000
    103       7.6971      2.00000
    104       7.7439      2.00000
    105       7.7824      2.00000
    106       7.8187      2.00000
    107       7.8769      2.00000
    108       7.9163      1.99999
    109       7.9935      1.99990
    110       8.0267      1.99975
    111       8.0602      1.99942
    112       8.2471      1.99028
    113       8.3981      2.05308
    114       8.6639      0.97710
    115       8.6944      0.66091
    116       9.1910      0.00256
    117       9.3223      0.00013
    118       9.5960      0.00000
    119       9.8908      0.00000
    120       9.9881      0.00000
    121      10.1947      0.00000
    122      10.7026      0.00000
    123      11.3380      0.00000
    124      11.7125      0.00000
    125      11.8151      0.00000
    126      11.8698      0.00000
    127      11.9120      0.00000
    128      11.9929      0.00000
    129      12.0343      0.00000
    130      12.0604      0.00000
    131      12.2226      0.00000
    132      12.2405      0.00000
    133      12.2756      0.00000
    134      12.2887      0.00000
    135      12.2947      0.00000
    136      12.3417      0.00000

 k-point   333 :      -0.4375    0.1875   -0.3125
  band No.  band energies     occupation 
      1     -23.0244      2.00000
      2     -22.6464      2.00000
      3     -22.6433      2.00000
      4     -22.3619      2.00000
      5     -22.3344      2.00000
      6     -22.2691      2.00000
      7     -10.7501      2.00000
      8     -10.6413      2.00000
      9     -10.5638      2.00000
     10     -10.4481      2.00000
     11     -10.3629      2.00000
     12     -10.1450      2.00000
     13      -9.8305      2.00000
     14      -9.7825      2.00000
     15      -9.6648      2.00000
     16      -9.5709      2.00000
     17      -9.4929      2.00000
     18      -9.4512      2.00000
     19      -9.2515      2.00000
     20      -9.1795      2.00000
     21      -9.0632      2.00000
     22      -8.9934      2.00000
     23      -8.9323      2.00000
     24      -6.7651      2.00000
     25      -6.6281      2.00000
     26      -6.4588      2.00000
     27      -6.3035      2.00000
     28      -6.1823      2.00000
     29      -6.1406      2.00000
     30      -5.9974      2.00000
     31      -5.9664      2.00000
     32      -5.8939      2.00000
     33      -5.8321      2.00000
     34      -5.7517      2.00000
     35      -5.6751      2.00000
     36      -5.6265      2.00000
     37      -5.5785      2.00000
     38      -5.4841      2.00000
     39      -5.4169      2.00000
     40      -5.2737      2.00000
     41      -5.2227      2.00000
     42       1.9000      2.00000
     43       2.0134      2.00000
     44       2.1626      2.00000
     45       2.3237      2.00000
     46       2.5326      2.00000
     47       2.6240      2.00000
     48       3.1233      2.00000
     49       3.1710      2.00000
     50       3.2197      2.00000
     51       3.2797      2.00000
     52       3.3338      2.00000
     53       3.3744      2.00000
     54       3.4266      2.00000
     55       3.4483      2.00000
     56       3.4911      2.00000
     57       3.5538      2.00000
     58       3.5989      2.00000
     59       3.6862      2.00000
     60       3.7365      2.00000
     61       3.7760      2.00000
     62       3.8800      2.00000
     63       4.1591      2.00000
     64       4.2007      2.00000
     65       4.2880      2.00000
     66       4.3275      2.00000
     67       4.3662      2.00000
     68       4.4139      2.00000
     69       4.4425      2.00000
     70       4.4803      2.00000
     71       4.6641      2.00000
     72       4.7956      2.00000
     73       4.9239      2.00000
     74       5.1251      2.00000
     75       5.2681      2.00000
     76       5.4068      2.00000
     77       5.4328      2.00000
     78       5.4955      2.00000
     79       5.6749      2.00000
     80       5.7542      2.00000
     81       5.8123      2.00000
     82       5.8432      2.00000
     83       6.0417      2.00000
     84       6.1357      2.00000
     85       6.1938      2.00000
     86       6.2522      2.00000
     87       6.3226      2.00000
     88       6.4721      2.00000
     89       6.4966      2.00000
     90       6.6671      2.00000
     91       6.7901      2.00000
     92       6.8908      2.00000
     93       7.0068      2.00000
     94       7.1976      2.00000
     95       7.3759      2.00000
     96       7.3900      2.00000
     97       7.4251      2.00000
     98       7.4980      2.00000
     99       7.5816      2.00000
    100       7.6241      2.00000
    101       7.6624      2.00000
    102       7.7182      2.00000
    103       7.7528      2.00000
    104       7.8078      2.00000
    105       7.8228      2.00000
    106       7.8526      2.00000
    107       7.8839      2.00000
    108       7.9327      1.99998
    109       7.9551      1.99997
    110       7.9977      1.99988
    111       8.1114      1.99827
    112       8.2044      1.99280
    113       8.4187      2.07278
    114       8.4938      2.09206
    115       9.0555      0.00970
    116       9.1268      0.00662
    117       9.3462      0.00007
    118       9.5182      0.00000
    119       9.7612      0.00000
    120       9.9076      0.00000
    121      10.4884      0.00000
    122      10.6960      0.00000
    123      11.2068      0.00000
    124      11.6984      0.00000
    125      11.8290      0.00000
    126      11.8752      0.00000
    127      11.9198      0.00000
    128      11.9914      0.00000
    129      12.0223      0.00000
    130      12.0846      0.00000
    131      12.2223      0.00000
    132      12.2417      0.00000
    133      12.2609      0.00000
    134      12.2732      0.00000
    135      12.3158      0.00000
    136      12.3395      0.00000

 k-point   334 :      -0.3125    0.1875   -0.3125
  band No.  band energies     occupation 
      1     -23.0308      2.00000
      2     -22.6513      2.00000
      3     -22.6443      2.00000
      4     -22.3810      2.00000
      5     -22.3322      2.00000
      6     -22.2506      2.00000
      7     -10.6697      2.00000
      8     -10.5681      2.00000
      9     -10.5181      2.00000
     10     -10.3263      2.00000
     11     -10.1638      2.00000
     12      -9.9550      2.00000
     13      -9.8527      2.00000
     14      -9.7516      2.00000
     15      -9.6474      2.00000
     16      -9.5267      2.00000
     17      -9.4901      2.00000
     18      -9.3986      2.00000
     19      -9.2847      2.00000
     20      -9.2576      2.00000
     21      -9.1392      2.00000
     22      -9.0640      2.00000
     23      -8.9922      2.00000
     24      -6.8345      2.00000
     25      -6.6737      2.00000
     26      -6.5202      2.00000
     27      -6.3521      2.00000
     28      -6.2408      2.00000
     29      -6.1776      2.00000
     30      -6.0932      2.00000
     31      -6.0357      2.00000
     32      -5.9466      2.00000
     33      -5.8969      2.00000
     34      -5.8118      2.00000
     35      -5.7758      2.00000
     36      -5.7123      2.00000
     37      -5.6493      2.00000
     38      -5.6018      2.00000
     39      -5.5511      2.00000
     40      -5.3864      2.00000
     41      -5.3210      2.00000
     42       1.6785      2.00000
     43       1.8349      2.00000
     44       2.1768      2.00000
     45       2.4224      2.00000
     46       2.8201      2.00000
     47       2.9947      2.00000
     48       3.0986      2.00000
     49       3.1862      2.00000
     50       3.2666      2.00000
     51       3.2852      2.00000
     52       3.3385      2.00000
     53       3.3921      2.00000
     54       3.4911      2.00000
     55       3.5181      2.00000
     56       3.5571      2.00000
     57       3.6567      2.00000
     58       3.6735      2.00000
     59       3.6986      2.00000
     60       3.7691      2.00000
     61       3.8078      2.00000
     62       3.9457      2.00000
     63       4.1070      2.00000
     64       4.1867      2.00000
     65       4.2603      2.00000
     66       4.3497      2.00000
     67       4.3978      2.00000
     68       4.5094      2.00000
     69       4.6766      2.00000
     70       4.7828      2.00000
     71       4.8358      2.00000
     72       4.8786      2.00000
     73       5.0402      2.00000
     74       5.1129      2.00000
     75       5.3015      2.00000
     76       5.4679      2.00000
     77       5.6076      2.00000
     78       5.7020      2.00000
     79       5.7555      2.00000
     80       5.8478      2.00000
     81       5.9407      2.00000
     82       5.9701      2.00000
     83       6.1286      2.00000
     84       6.1914      2.00000
     85       6.2774      2.00000
     86       6.3383      2.00000
     87       6.3870      2.00000
     88       6.4577      2.00000
     89       6.5780      2.00000
     90       6.6480      2.00000
     91       6.7344      2.00000
     92       6.8387      2.00000
     93       6.9384      2.00000
     94       7.0875      2.00000
     95       7.2767      2.00000
     96       7.3307      2.00000
     97       7.3984      2.00000
     98       7.4541      2.00000
     99       7.5356      2.00000
    100       7.5587      2.00000
    101       7.6504      2.00000
    102       7.7206      2.00000
    103       7.7482      2.00000
    104       7.8221      2.00000
    105       7.8650      2.00000
    106       7.8945      2.00000
    107       7.9255      1.99999
    108       7.9749      1.99994
    109       8.0108      1.99983
    110       8.0482      1.99957
    111       8.1529      1.99638
    112       8.2624      1.99017
    113       8.3578      2.01912
    114       8.6392      1.23538
    115       8.7708      0.07435
    116       8.9812     -0.00944
    117       9.2524      0.00074
    118       9.7574      0.00000
    119       9.8641      0.00000
    120      10.1778      0.00000
    121      10.4536      0.00000
    122      10.8329      0.00000
    123      11.0916      0.00000
    124      11.6338      0.00000
    125      11.8442      0.00000
    126      11.8751      0.00000
    127      11.9332      0.00000
    128      11.9791      0.00000
    129      12.0069      0.00000
    130      12.0858      0.00000
    131      12.1766      0.00000
    132      12.2179      0.00000
    133      12.2549      0.00000
    134      12.2662      0.00000
    135      12.3024      0.00000
    136      12.3472      0.00000

 k-point   335 :      -0.1875    0.1875   -0.3125
  band No.  band energies     occupation 
      1     -23.0357      2.00000
      2     -22.6557      2.00000
      3     -22.6450      2.00000
      4     -22.3933      2.00000
      5     -22.3306      2.00000
      6     -22.2386      2.00000
      7     -10.5840      2.00000
      8     -10.5202      2.00000
      9     -10.4518      2.00000
     10     -10.2602      2.00000
     11     -10.0404      2.00000
     12      -9.8407      2.00000
     13      -9.7288      2.00000
     14      -9.6858      2.00000
     15      -9.6392      2.00000
     16      -9.5059      2.00000
     17      -9.4455      2.00000
     18      -9.4001      2.00000
     19      -9.3457      2.00000
     20      -9.2969      2.00000
     21      -9.1910      2.00000
     22      -9.1753      2.00000
     23      -9.0559      2.00000
     24      -6.8758      2.00000
     25      -6.7011      2.00000
     26      -6.5525      2.00000
     27      -6.3730      2.00000
     28      -6.2828      2.00000
     29      -6.2034      2.00000
     30      -6.1727      2.00000
     31      -6.1349      2.00000
     32      -6.0116      2.00000
     33      -5.9709      2.00000
     34      -5.8919      2.00000
     35      -5.8244      2.00000
     36      -5.7811      2.00000
     37      -5.7066      2.00000
     38      -5.6690      2.00000
     39      -5.6083      2.00000
     40      -5.5331      2.00000
     41      -5.4027      2.00000
     42       1.4989      2.00000
     43       1.6823      2.00000
     44       2.2398      2.00000
     45       2.4985      2.00000
     46       3.0572      2.00000
     47       3.0936      2.00000
     48       3.1642      2.00000
     49       3.2182      2.00000
     50       3.2521      2.00000
     51       3.2961      2.00000
     52       3.3629      2.00000
     53       3.4020      2.00000
     54       3.4850      2.00000
     55       3.5313      2.00000
     56       3.6217      2.00000
     57       3.7094      2.00000
     58       3.7330      2.00000
     59       3.7851      2.00000
     60       3.8327      2.00000
     61       3.9190      2.00000
     62       4.0709      2.00000
     63       4.1344      2.00000
     64       4.1685      2.00000
     65       4.2536      2.00000
     66       4.3099      2.00000
     67       4.3739      2.00000
     68       4.4790      2.00000
     69       4.6314      2.00000
     70       4.8180      2.00000
     71       4.9604      2.00000
     72       5.1117      2.00000
     73       5.2500      2.00000
     74       5.3420      2.00000
     75       5.4178      2.00000
     76       5.6041      2.00000
     77       5.6512      2.00000
     78       5.8016      2.00000
     79       5.9009      2.00000
     80       5.9834      2.00000
     81       6.0631      2.00000
     82       6.1327      2.00000
     83       6.1657      2.00000
     84       6.2238      2.00000
     85       6.3326      2.00000
     86       6.3495      2.00000
     87       6.445