 vasp.5.4.4.18Apr17-6-g9f103f2a35 (build Apr 23 2020 23:07:35) complex          
  
 executed on             LinuxIFC date 2020.08.17  11:29:03
 running on   40 total cores
 distrk:  each k-point on   40 cores,    1 groups
 distr:  one band on NCORES_PER_BAND=  40 cores,    1 groups


--------------------------------------------------------------------------------------------------------


 INCAR:
 POTCAR:    PAW_PBE La 06Sep2000                  
 POTCAR:    PAW_PBE Ni 02Aug2007                  
 POTCAR:    PAW_PBE O 08Apr2002                   

 ----------------------------------------------------------------------------- 
|                                                                             |
|           W    W    AA    RRRRR   N    N  II  N    N   GGGG   !!!           |
|           W    W   A  A   R    R  NN   N  II  NN   N  G    G  !!!           |
|           W    W  A    A  R    R  N N  N  II  N N  N  G       !!!           |
|           W WW W  AAAAAA  RRRRR   N  N N  II  N  N N  G  GGG   !            |
|           WW  WW  A    A  R   R   N   NN  II  N   NN  G    G                |
|           W    W  A    A  R    R  N    N  II  N    N   GGGG   !!!           |
|                                                                             |
|      For optimal performance we recommend to set                            |
|        NCORE= 4 - approx SQRT( number of cores)                             |
|      NCORE specifies how many cores store one orbital (NPAR=cpu/NCORE).     |
|      This setting can  greatly improve the performance of VASP for DFT.     |
|      The default,   NCORE=1            might be grossly inefficient         |
|      on modern multi-core architectures or massively parallel machines.     |
|      Do your own testing !!!!                                               |
|      Unfortunately you need to use the default for GW and RPA calculations. |
|      (for HF NCORE is supported but not extensively tested yet)             |
|                                                                             |
 ----------------------------------------------------------------------------- 

 POTCAR:    PAW_PBE La 06Sep2000                  
   VRHFIN =La : [core=Kr4d]                                                     
   LEXCH  = PE                                                                  
   EATOM  =   865.9763 eV,   63.6475 Ry                                         
                                                                                
   TITEL  = PAW_PBE La 06Sep2000                                                
   LULTRA =        F    use ultrasoft PP ?                                      
   IUNSCR =        1    unscreen: 0-lin 1-nonlin 2-no                           
   RPACOR =    2.300    partial core radius                                     
   POMASS =  138.900; ZVAL   =   11.000    mass and valenz                      
   RCORE  =    2.800    outmost cutoff radius                                   
   RWIGS  =    2.900; RWIGS  =    1.535    wigner-seitz radius (au A)           
   ENMAX  =  219.292; ENMIN  =  164.469 eV                                      
   RCLOC  =    1.601    cutoff for local pot                                    
   LCOR   =        T    correct aug charges                                     
   LPAW   =        T    paw PP                                                  
   EAUG   =  583.575                                                            
   DEXC   =    0.000                                                            
   RMAX   =    2.853    core radius for proj-oper                               
   RAUG   =    1.300    factor for augmentation sphere                          
   RDEP   =    2.802    radius for radial grids                                 
   RDEPT  =    2.156    core radius for aug-charge                              
                                                                                
   Atomic configuration                                                         
   14 entries                                                                   
     n  l   j            E        occ.                                          
     1  0  0.50    -38741.0879   2.0000                                         
     2  0  0.50     -6166.6801   2.0000                                         
     2  1  1.50     -5526.1593   6.0000                                         
     3  0  0.50     -1319.0200   2.0000                                         
     3  1  1.50     -1114.5963   6.0000                                         
     3  2  2.50      -821.1793  10.0000                                         
     4  0  0.50      -266.3851   2.0000                                         
     4  1  1.50      -199.9276   6.0000                                         
     4  2  2.50      -103.8239  10.0000                                         
     5  0  0.50       -38.9172   2.0000                                         
     6  0  0.50        -3.6792   2.0000                                         
     5  1  1.50       -22.3948   6.0000                                         
     5  2  2.50        -3.0911   0.9999                                         
     4  3  2.50        -4.3603   0.0001                                         
   Description                                                                  
     l       E           TYP  RCUT    TYP  RCUT                                 
     0    -38.9171645     23  2.800                                             
     0     -3.6792381     23  2.800                                             
     1    -22.3948300     23  2.500                                             
     1     27.2116520     23  2.500                                             
     2     -3.0910934     23  2.500                                             
     2      1.0119135     23  2.500                                             
     3     -4.3602911     23  2.800                                             
     3     -5.7208737     23  2.800                                             
  local pseudopotential read in
  partial core-charges read in
  partial kinetic energy density read in
  atomic valenz-charges read in
  non local Contribution for L=           0  read in
    real space projection operators read in
  non local Contribution for L=           0  read in
    real space projection operators read in
  non local Contribution for L=           1  read in
    real space projection operators read in
  non local Contribution for L=           1  read in
    real space projection operators read in
  non local Contribution for L=           2  read in
    real space projection operators read in
  non local Contribution for L=           2  read in
    real space projection operators read in
  non local Contribution for L=           3  read in
    real space projection operators read in
  non local Contribution for L=           3  read in
    real space projection operators read in
    PAW grid and wavefunctions read in
 
   number of l-projection  operators is LMAX  =           8
   number of lm-projection operators is LMMAX =          32
 
 POTCAR:    PAW_PBE Ni 02Aug2007                  
   VRHFIN =Ni:                                                                  
   LEXCH  = PE                                                                  
   EATOM  =  1077.6739 eV,   79.2068 Ry                                         
                                                                                
   TITEL  = PAW_PBE Ni 02Aug2007                                                
   LULTRA =        F    use ultrasoft PP ?                                      
   IUNSCR =        1    unscreen: 0-lin 1-nonlin 2-no                           
   RPACOR =    2.000    partial core radius                                     
   POMASS =   58.690; ZVAL   =   10.000    mass and valenz                      
   RCORE  =    2.300    outmost cutoff radius                                   
   RWIGS  =    2.430; RWIGS  =    1.286    wigner-seitz radius (au A)           
   ENMAX  =  269.532; ENMIN  =  202.149 eV                                      
   RCLOC  =    1.201    cutoff for local pot                                    
   LCOR   =        T    correct aug charges                                     
   LPAW   =        T    paw PP                                                  
   EAUG   =  544.565                                                            
   DEXC   =    0.000                                                            
   RMAX   =    2.357    core radius for proj-oper                               
   RAUG   =    1.300    factor for augmentation sphere                          
   RDEP   =    2.390    radius for radial grids                                 
   RDEPT  =    1.838    core radius for aug-charge                              
                                                                                
   Atomic configuration                                                         
    9 entries                                                                   
     n  l   j            E        occ.                                          
     1  0  0.50     -8206.4253   2.0000                                         
     2  0  0.50      -976.1748   2.0000                                         
     2  1  1.50      -839.0571   6.0000                                         
     3  0  0.50      -105.9991   2.0000                                         
     3  1  1.50       -66.4603   6.0000                                         
     3  2  2.50        -4.6458   9.0000                                         
     4  0  0.50        -4.4926   1.0000                                         
     4  1  1.50        -4.0817   0.0000                                         
     4  3  2.50        -1.3606   0.0000                                         
   Description                                                                  
     l       E           TYP  RCUT    TYP  RCUT                                 
     2     -4.6457903     23  2.300                                             
     2     -6.0063729     23  2.300                                             
     0     -4.4925590     23  2.300                                             
     0      5.0102601     23  2.300                                             
     1     -2.7211652     23  2.300                                             
     1     16.5183231     23  2.300                                             
  local pseudopotential read in
  partial core-charges read in
  partial kinetic energy density read in
  atomic valenz-charges read in
  non local Contribution for L=           2  read in
    real space projection operators read in
  non local Contribution for L=           2  read in
    real space projection operators read in
  non local Contribution for L=           0  read in
    real space projection operators read in
  non local Contribution for L=           0  read in
    real space projection operators read in
  non local Contribution for L=           1  read in
    real space projection operators read in
  non local Contribution for L=           1  read in
    real space projection operators read in
    PAW grid and wavefunctions read in
 
   number of l-projection  operators is LMAX  =           6
   number of lm-projection operators is LMMAX =          18
 
 POTCAR:    PAW_PBE O 08Apr2002                   
   VRHFIN =O: s2p4                                                              
   LEXCH  = PE                                                                  
   EATOM  =   432.3788 eV,   31.7789 Ry                                         
                                                                                
   TITEL  = PAW_PBE O 08Apr2002                                                 
   LULTRA =        F    use ultrasoft PP ?                                      
   IUNSCR =        1    unscreen: 0-lin 1-nonlin 2-no                           
   RPACOR =    1.200    partial core radius                                     
   POMASS =   16.000; ZVAL   =    6.000    mass and valenz                      
   RCORE  =    1.520    outmost cutoff radius                                   
   RWIGS  =    1.550; RWIGS  =    0.820    wigner-seitz radius (au A)           
   ENMAX  =  400.000; ENMIN  =  300.000 eV                                      
   ICORE  =        2    local potential                                         
   LCOR   =        T    correct aug charges                                     
   LPAW   =        T    paw PP                                                  
   EAUG   =  605.392                                                            
   DEXC   =    0.000                                                            
   RMAX   =    1.553    core radius for proj-oper                               
   RAUG   =    1.300    factor for augmentation sphere                          
   RDEP   =    1.550    radius for radial grids                                 
   RDEPT  =    1.329    core radius for aug-charge                              
                                                                                
   Atomic configuration                                                         
    4 entries                                                                   
     n  l   j            E        occ.                                          
     1  0  0.50      -514.6923   2.0000                                         
     2  0  0.50       -23.9615   2.0000                                         
     2  1  0.50        -9.0305   4.0000                                         
     3  2  1.50        -9.5241   0.0000                                         
   Description                                                                  
     l       E           TYP  RCUT    TYP  RCUT                                 
     0    -23.9615318     23  1.200                                             
     0     -9.5240782     23  1.200                                             
     1     -9.0304911     23  1.520                                             
     1      8.1634956     23  1.520                                             
     2     -9.5240782      7  1.500                                             
  local pseudopotential read in
  partial core-charges read in
  partial kinetic energy density read in
  kinetic energy density of atom read in
  atomic valenz-charges read in
  non local Contribution for L=           0  read in
    real space projection operators read in
  non local Contribution for L=           0  read in
    real space projection operators read in
  non local Contribution for L=           1  read in
    real space projection operators read in
  non local Contribution for L=           1  read in
    real space projection operators read in
    PAW grid and wavefunctions read in
 
   number of l-projection  operators is LMAX  =           4
   number of lm-projection operators is LMMAX =           8
 
 Optimization of the real space projectors (new method)

 maximal supplied QI-value         = 13.42
 optimisation between [QCUT,QGAM] = [ 12.48, 25.09] = [ 43.60,176.28] Ry 
 Optimized for a Real-space Cutoff    1.61 Angstroem

   l    n(q)    QCUT    max X(q) W(low)/X(q) W(high)/X(q)  e(spline) 
   0     12    12.478    13.882    0.23E-04    0.83E-05    0.20E-06
   0     12    12.478    12.184    0.33E-04    0.13E-04    0.33E-06
   1     12    12.478     4.523    0.11E-04    0.86E-05    0.64E-07
   1     12    12.478     4.424    0.16E-04    0.11E-04    0.10E-06
   2     11    12.478    52.481    0.47E-04    0.21E-04    0.34E-06
   2     11    12.478    38.501    0.44E-04    0.20E-04    0.31E-06
   3     11    12.478    65.631    0.65E-04    0.14E-03    0.17E-05
   3     11    12.478    56.854    0.67E-04    0.14E-03    0.17E-05
 Optimization of the real space projectors (new method)

 maximal supplied QI-value         = 16.25
 optimisation between [QCUT,QGAM] = [ 12.51, 25.03] = [ 43.85,175.40] Ry 
 Optimized for a Real-space Cutoff    1.35 Angstroem

   l    n(q)    QCUT    max X(q) W(low)/X(q) W(high)/X(q)  e(spline) 
   2      9    12.514    60.317    0.12E-03    0.13E-03    0.35E-06
   2      9    12.514    55.921    0.12E-03    0.13E-03    0.36E-06
   0     10    12.514    51.690    0.20E-03    0.11E-03    0.14E-06
   0     10    12.514    30.015    0.18E-03    0.96E-04    0.13E-06
   1     10    12.514    18.849    0.12E-03    0.67E-04    0.21E-06
   1     10    12.514    14.624    0.11E-03    0.53E-04    0.17E-06
 Optimization of the real space projectors (new method)

 maximal supplied QI-value         = 24.76
 optimisation between [QCUT,QGAM] = [ 12.38, 25.00] = [ 42.90,175.06] Ry 
 Optimized for a Real-space Cutoff    1.16 Angstroem

   l    n(q)    QCUT    max X(q) W(low)/X(q) W(high)/X(q)  e(spline) 
   0      9    12.378    20.381    0.16E-03    0.67E-05    0.31E-06
   0      9    12.378    15.268    0.17E-03    0.81E-05    0.33E-06
   1      8    12.378     5.964    0.20E-03    0.16E-03    0.30E-06
   1      8    12.378     5.382    0.18E-03    0.14E-03    0.26E-06
  PAW_PBE La 06Sep2000                  :
 energy of atom  1       EATOM= -865.9763
 kinetic energy error for atom=    0.0007 (will be added to EATOM!!)
  PAW_PBE Ni 02Aug2007                  :
 energy of atom  2       EATOM=-1077.6739
 kinetic energy error for atom=    0.0019 (will be added to EATOM!!)
  PAW_PBE O 08Apr2002                   :
 energy of atom  3       EATOM= -432.3788
 kinetic energy error for atom=    0.0168 (will be added to EATOM!!)
 
 
 POSCAR: La6 Ni6 O17                             
  positions in direct lattice
  No initial velocities read in
 exchange correlation table for  LEXCH =        8
   RHO(1)=    0.500       N(1)  =     2000
   RHO(2)=  100.500       N(2)  =     4000

 VTST: version 3.2, (02/03/18)

 CHAIN: initializing optimizer
 
 OPT: Using VASP Dynamics algorithm
 CHAIN: Read ICHAIN            0
 
 POSCAR: La6 Ni6 O17                             
  positions in direct lattice
  No initial velocities read in
 


--------------------------------------------------------------------------------------------------------


 ion  position               nearest neighbor table
   1  0.000  0.000  0.250-  14 2.43  15 2.43  13 2.43  28 2.68  23 2.68  22 2.68  29 2.68  24 2.68
                             7 3.23   8 3.23   9 3.31  12 3.31  12 3.31   9 3.31   9 3.31  12 3.31
   2  0.000  0.000  0.750-  17 2.43  18 2.43  16 2.43  19 2.68  26 2.68  25 2.68  20 2.68  27 2.68
                            21 2.68   8 3.23   7 3.23  11 3.31  10 3.31  11 3.31  10 3.31  10 3.31
   3  0.667  0.333  0.583-  21 2.43  20 2.43  19 2.43  28 2.68  29 2.68  16 2.68  17 2.68  18 2.68
                             9 3.23  10 3.23   8 3.31  11 3.31  11 3.31   8 3.31   8 3.31  11 3.31
   4  0.667  0.333  0.083-  23 2.43  24 2.43  22 2.43  27 2.68  26 2.68  25 2.68  14 2.68  13 2.68
                            15 2.68  10 3.23   9 3.23   7 3.31  12 3.31  12 3.31   7 3.31   7 3.31
   5  0.333  0.667  0.917-  26 2.43  27 2.43  25 2.43  24 2.68  23 2.68  22 2.68  17 2.68  16 2.68
                            18 2.68  12 3.23  11 3.23   7 3.31  10 3.31  10 3.31   7 3.31   7 3.31
   6  0.333  0.667  0.417-  29 2.43  28 2.43  21 2.68  19 2.68  20 2.68  13 2.68  14 2.68  15 2.68
                            11 3.23  12 3.23   8 3.31   9 3.31   9 3.31   8 3.31   8 3.31   9 3.31
   7  0.000  0.000  0.000-  23 1.92  26 1.92  25 1.92  22 1.92  24 1.92  27 1.92   1 3.23   2 3.23
                             4 3.31   5 3.31   5 3.31   4 3.31   4 3.31   5 3.31
   8  0.000  0.000  0.500-  19 1.92  28 1.92  20 1.92  29 1.92  21 1.92   2 3.23   1 3.23   6 3.31
                             3 3.31   6 3.31   3 3.31   3 3.31   6 3.31
   9  0.667  0.333  0.333-  14 1.92  13 1.92  15 1.92  28 1.92  29 1.92   4 3.23   3 3.23   1 3.31
                             6 3.31   6 3.31   1 3.31   1 3.31   6 3.31
  10  0.667  0.333  0.833-  16 1.92  17 1.92  27 1.92  18 1.92  26 1.92  25 1.92   3 3.23   4 3.23
                             2 3.31   5 3.31   5 3.31   2 3.31   2 3.31   5 3.31
  11  0.333  0.667  0.667-  17 1.92  16 1.92  21 1.92  18 1.92  19 1.92  20 1.92   5 3.23   6 3.23
                             2 3.31   3 3.31   3 3.31   2 3.31   2 3.31   3 3.31
  12  0.333  0.667  0.167-  13 1.92  14 1.92  24 1.92  15 1.92  23 1.92  22 1.92   5 3.23   6 3.23
                             1 3.31   4 3.31   4 3.31   1 3.31   1 3.31   4 3.31
  13  0.448  0.000  0.250-  12 1.92   9 1.92   1 2.43   6 2.68   4 2.68
  14  0.000  0.448  0.250-   9 1.92  12 1.92   1 2.43   4 2.68   6 2.68
  15  0.552  0.552  0.250-   9 1.92  12 1.92   1 2.43   4 2.68   6 2.68
  16  0.552  0.000  0.750-  10 1.92  11 1.92   2 2.43   3 2.68   5 2.68
  17  0.000  0.552  0.750-  11 1.92  10 1.92   2 2.43   5 2.68   3 2.68
  18  0.448  0.448  0.750-  11 1.92  10 1.92   2 2.43   5 2.68   3 2.68
  19  0.115  0.333  0.583-   8 1.92  11 1.92   3 2.43   6 2.68   2 2.68
  20  0.667  0.781  0.583-   8 1.92  11 1.92   3 2.43   6 2.68   2 2.68
  21  0.219  0.885  0.583-  11 1.92   8 1.92   3 2.43   6 2.68   2 2.68
  22  0.219  0.333  0.083-   7 1.92  12 1.92   4 2.43   5 2.68   1 2.68
  23  0.667  0.885  0.083-   7 1.92  12 1.92   4 2.43   5 2.68   1 2.68
  24  0.115  0.781  0.083-  12 1.92   7 1.92   4 2.43   5 2.68   1 2.68
  25  0.781  0.667  0.917-   7 1.92  10 1.92   5 2.43   4 2.68   2 2.68
  26  0.333  0.115  0.917-   7 1.92  10 1.92   5 2.43   4 2.68   2 2.68
  27  0.885  0.219  0.917-  10 1.92   7 1.92   5 2.43   4 2.68   2 2.68
  28  0.885  0.667  0.417-   8 1.92   9 1.92   6 2.43   3 2.68   1 2.68
  29  0.333  0.219  0.417-   8 1.92   9 1.92   6 2.43   3 2.68   1 2.68
 

IMPORTANT INFORMATION: All symmetrisations will be switched off!
NOSYMM: (Re-)initialisation of all symmetry stuff for point group C_1.

 
 
 KPOINTS: Automatic mesh                          

Automatic generation of k-mesh.
Space group operators:
 irot       det(A)        alpha          n_x          n_y          n_z        tau_x        tau_y        tau_z
    1     1.000000     0.000001     1.000000     0.000000     0.000000     0.000000     0.000000     0.000000
 
 Subroutine IBZKPT returns following result:
 ===========================================
 
 Found    512 irreducible k-points:
 
 Following reciprocal coordinates:
            Coordinates               Weight
  0.062500  0.062500  0.062500      1.000000
  0.187500  0.062500  0.062500      1.000000
  0.312500  0.062500  0.062500      1.000000
  0.437500  0.062500  0.062500      1.000000
 -0.437500  0.062500  0.062500      1.000000
 -0.312500  0.062500  0.062500      1.000000
 -0.187500  0.062500  0.062500      1.000000
 -0.062500  0.062500  0.062500      1.000000
  0.062500  0.187500  0.062500      1.000000
  0.187500  0.187500  0.062500      1.000000
  0.312500  0.187500  0.062500      1.000000
  0.437500  0.187500  0.062500      1.000000
 -0.437500  0.187500  0.062500      1.000000
 -0.312500  0.187500  0.062500      1.000000
 -0.187500  0.187500  0.062500      1.000000
 -0.062500  0.187500  0.062500      1.000000
  0.062500  0.312500  0.062500      1.000000
  0.187500  0.312500  0.062500      1.000000
  0.312500  0.312500  0.062500      1.000000
  0.437500  0.312500  0.062500      1.000000
 -0.437500  0.312500  0.062500      1.000000
 -0.312500  0.312500  0.062500      1.000000
 -0.187500  0.312500  0.062500      1.000000
 -0.062500  0.312500  0.062500      1.000000
  0.062500  0.437500  0.062500      1.000000
  0.187500  0.437500  0.062500      1.000000
  0.312500  0.437500  0.062500      1.000000
  0.437500  0.437500  0.062500      1.000000
 -0.437500  0.437500  0.062500      1.000000
 -0.312500  0.437500  0.062500      1.000000
 -0.187500  0.437500  0.062500      1.000000
 -0.062500  0.437500  0.062500      1.000000
  0.062500 -0.437500  0.062500      1.000000
  0.187500 -0.437500  0.062500      1.000000
  0.312500 -0.437500  0.062500      1.000000
  0.437500 -0.437500  0.062500      1.000000
 -0.437500 -0.437500  0.062500      1.000000
 -0.312500 -0.437500  0.062500      1.000000
 -0.187500 -0.437500  0.062500      1.000000
 -0.062500 -0.437500  0.062500      1.000000
  0.062500 -0.312500  0.062500      1.000000
  0.187500 -0.312500  0.062500      1.000000
  0.312500 -0.312500  0.062500      1.000000
  0.437500 -0.312500  0.062500      1.000000
 -0.437500 -0.312500  0.062500      1.000000
 -0.312500 -0.312500  0.062500      1.000000
 -0.187500 -0.312500  0.062500      1.000000
 -0.062500 -0.312500  0.062500      1.000000
  0.062500 -0.187500  0.062500      1.000000
  0.187500 -0.187500  0.062500      1.000000
  0.312500 -0.187500  0.062500      1.000000
  0.437500 -0.187500  0.062500      1.000000
 -0.437500 -0.187500  0.062500      1.000000
 -0.312500 -0.187500  0.062500      1.000000
 -0.187500 -0.187500  0.062500      1.000000
 -0.062500 -0.187500  0.062500      1.000000
  0.062500 -0.062500  0.062500      1.000000
  0.187500 -0.062500  0.062500      1.000000
  0.312500 -0.062500  0.062500      1.000000
  0.437500 -0.062500  0.062500      1.000000
 -0.437500 -0.062500  0.062500      1.000000
 -0.312500 -0.062500  0.062500      1.000000
 -0.187500 -0.062500  0.062500      1.000000
 -0.062500 -0.062500  0.062500      1.000000
  0.062500  0.062500  0.187500      1.000000
  0.187500  0.062500  0.187500      1.000000
  0.312500  0.062500  0.187500      1.000000
  0.437500  0.062500  0.187500      1.000000
 -0.437500  0.062500  0.187500      1.000000
 -0.312500  0.062500  0.187500      1.000000
 -0.187500  0.062500  0.187500      1.000000
 -0.062500  0.062500  0.187500      1.000000
  0.062500  0.187500  0.187500      1.000000
  0.187500  0.187500  0.187500      1.000000
  0.312500  0.187500  0.187500      1.000000
  0.437500  0.187500  0.187500      1.000000
 -0.437500  0.187500  0.187500      1.000000
 -0.312500  0.187500  0.187500      1.000000
 -0.187500  0.187500  0.187500      1.000000
 -0.062500  0.187500  0.187500      1.000000
  0.062500  0.312500  0.187500      1.000000
  0.187500  0.312500  0.187500      1.000000
  0.312500  0.312500  0.187500      1.000000
  0.437500  0.312500  0.187500      1.000000
 -0.437500  0.312500  0.187500      1.000000
 -0.312500  0.312500  0.187500      1.000000
 -0.187500  0.312500  0.187500      1.000000
 -0.062500  0.312500  0.187500      1.000000
  0.062500  0.437500  0.187500      1.000000
  0.187500  0.437500  0.187500      1.000000
  0.312500  0.437500  0.187500      1.000000
  0.437500  0.437500  0.187500      1.000000
 -0.437500  0.437500  0.187500      1.000000
 -0.312500  0.437500  0.187500      1.000000
 -0.187500  0.437500  0.187500      1.000000
 -0.062500  0.437500  0.187500      1.000000
  0.062500 -0.437500  0.187500      1.000000
  0.187500 -0.437500  0.187500      1.000000
  0.312500 -0.437500  0.187500      1.000000
  0.437500 -0.437500  0.187500      1.000000
 -0.437500 -0.437500  0.187500      1.000000
 -0.312500 -0.437500  0.187500      1.000000
 -0.187500 -0.437500  0.187500      1.000000
 -0.062500 -0.437500  0.187500      1.000000
  0.062500 -0.312500  0.187500      1.000000
  0.187500 -0.312500  0.187500      1.000000
  0.312500 -0.312500  0.187500      1.000000
  0.437500 -0.312500  0.187500      1.000000
 -0.437500 -0.312500  0.187500      1.000000
 -0.312500 -0.312500  0.187500      1.000000
 -0.187500 -0.312500  0.187500      1.000000
 -0.062500 -0.312500  0.187500      1.000000
  0.062500 -0.187500  0.187500      1.000000
  0.187500 -0.187500  0.187500      1.000000
  0.312500 -0.187500  0.187500      1.000000
  0.437500 -0.187500  0.187500      1.000000
 -0.437500 -0.187500  0.187500      1.000000
 -0.312500 -0.187500  0.187500      1.000000
 -0.187500 -0.187500  0.187500      1.000000
 -0.062500 -0.187500  0.187500      1.000000
  0.062500 -0.062500  0.187500      1.000000
  0.187500 -0.062500  0.187500      1.000000
  0.312500 -0.062500  0.187500      1.000000
  0.437500 -0.062500  0.187500      1.000000
 -0.437500 -0.062500  0.187500      1.000000
 -0.312500 -0.062500  0.187500      1.000000
 -0.187500 -0.062500  0.187500      1.000000
 -0.062500 -0.062500  0.187500      1.000000
  0.062500  0.062500  0.312500      1.000000
  0.187500  0.062500  0.312500      1.000000
  0.312500  0.062500  0.312500      1.000000
  0.437500  0.062500  0.312500      1.000000
 -0.437500  0.062500  0.312500      1.000000
 -0.312500  0.062500  0.312500      1.000000
 -0.187500  0.062500  0.312500      1.000000
 -0.062500  0.062500  0.312500      1.000000
  0.062500  0.187500  0.312500      1.000000
  0.187500  0.187500  0.312500      1.000000
  0.312500  0.187500  0.312500      1.000000
  0.437500  0.187500  0.312500      1.000000
 -0.437500  0.187500  0.312500      1.000000
 -0.312500  0.187500  0.312500      1.000000
 -0.187500  0.187500  0.312500      1.000000
 -0.062500  0.187500  0.312500      1.000000
  0.062500  0.312500  0.312500      1.000000
  0.187500  0.312500  0.312500      1.000000
  0.312500  0.312500  0.312500      1.000000
  0.437500  0.312500  0.312500      1.000000
 -0.437500  0.312500  0.312500      1.000000
 -0.312500  0.312500  0.312500      1.000000
 -0.187500  0.312500  0.312500      1.000000
 -0.062500  0.312500  0.312500      1.000000
  0.062500  0.437500  0.312500      1.000000
  0.187500  0.437500  0.312500      1.000000
  0.312500  0.437500  0.312500      1.000000
  0.437500  0.437500  0.312500      1.000000
 -0.437500  0.437500  0.312500      1.000000
 -0.312500  0.437500  0.312500      1.000000
 -0.187500  0.437500  0.312500      1.000000
 -0.062500  0.437500  0.312500      1.000000
  0.062500 -0.437500  0.312500      1.000000
  0.187500 -0.437500  0.312500      1.000000
  0.312500 -0.437500  0.312500      1.000000
  0.437500 -0.437500  0.312500      1.000000
 -0.437500 -0.437500  0.312500      1.000000
 -0.312500 -0.437500  0.312500      1.000000
 -0.187500 -0.437500  0.312500      1.000000
 -0.062500 -0.437500  0.312500      1.000000
  0.062500 -0.312500  0.312500      1.000000
  0.187500 -0.312500  0.312500      1.000000
  0.312500 -0.312500  0.312500      1.000000
  0.437500 -0.312500  0.312500      1.000000
 -0.437500 -0.312500  0.312500      1.000000
 -0.312500 -0.312500  0.312500      1.000000
 -0.187500 -0.312500  0.312500      1.000000
 -0.062500 -0.312500  0.312500      1.000000
  0.062500 -0.187500  0.312500      1.000000
  0.187500 -0.187500  0.312500      1.000000
  0.312500 -0.187500  0.312500      1.000000
  0.437500 -0.187500  0.312500      1.000000
 -0.437500 -0.187500  0.312500      1.000000
 -0.312500 -0.187500  0.312500      1.000000
 -0.187500 -0.187500  0.312500      1.000000
 -0.062500 -0.187500  0.312500      1.000000
  0.062500 -0.062500  0.312500      1.000000
  0.187500 -0.062500  0.312500      1.000000
  0.312500 -0.062500  0.312500      1.000000
  0.437500 -0.062500  0.312500      1.000000
 -0.437500 -0.062500  0.312500      1.000000
 -0.312500 -0.062500  0.312500      1.000000
 -0.187500 -0.062500  0.312500      1.000000
 -0.062500 -0.062500  0.312500      1.000000
  0.062500  0.062500  0.437500      1.000000
  0.187500  0.062500  0.437500      1.000000
  0.312500  0.062500  0.437500      1.000000
  0.437500  0.062500  0.437500      1.000000
 -0.437500  0.062500  0.437500      1.000000
 -0.312500  0.062500  0.437500      1.000000
 -0.187500  0.062500  0.437500      1.000000
 -0.062500  0.062500  0.437500      1.000000
  0.062500  0.187500  0.437500      1.000000
  0.187500  0.187500  0.437500      1.000000
  0.312500  0.187500  0.437500      1.000000
  0.437500  0.187500  0.437500      1.000000
 -0.437500  0.187500  0.437500      1.000000
 -0.312500  0.187500  0.437500      1.000000
 -0.187500  0.187500  0.437500      1.000000
 -0.062500  0.187500  0.437500      1.000000
  0.062500  0.312500  0.437500      1.000000
  0.187500  0.312500  0.437500      1.000000
  0.312500  0.312500  0.437500      1.000000
  0.437500  0.312500  0.437500      1.000000
 -0.437500  0.312500  0.437500      1.000000
 -0.312500  0.312500  0.437500      1.000000
 -0.187500  0.312500  0.437500      1.000000
 -0.062500  0.312500  0.437500      1.000000
  0.062500  0.437500  0.437500      1.000000
  0.187500  0.437500  0.437500      1.000000
  0.312500  0.437500  0.437500      1.000000
  0.437500  0.437500  0.437500      1.000000
 -0.437500  0.437500  0.437500      1.000000
 -0.312500  0.437500  0.437500      1.000000
 -0.187500  0.437500  0.437500      1.000000
 -0.062500  0.437500  0.437500      1.000000
  0.062500 -0.437500  0.437500      1.000000
  0.187500 -0.437500  0.437500      1.000000
  0.312500 -0.437500  0.437500      1.000000
  0.437500 -0.437500  0.437500      1.000000
 -0.437500 -0.437500  0.437500      1.000000
 -0.312500 -0.437500  0.437500      1.000000
 -0.187500 -0.437500  0.437500      1.000000
 -0.062500 -0.437500  0.437500      1.000000
  0.062500 -0.312500  0.437500      1.000000
  0.187500 -0.312500  0.437500      1.000000
  0.312500 -0.312500  0.437500      1.000000
  0.437500 -0.312500  0.437500      1.000000
 -0.437500 -0.312500  0.437500      1.000000
 -0.312500 -0.312500  0.437500      1.000000
 -0.187500 -0.312500  0.437500      1.000000
 -0.062500 -0.312500  0.437500      1.000000
  0.062500 -0.187500  0.437500      1.000000
  0.187500 -0.187500  0.437500      1.000000
  0.312500 -0.187500  0.437500      1.000000
  0.437500 -0.187500  0.437500      1.000000
 -0.437500 -0.187500  0.437500      1.000000
 -0.312500 -0.187500  0.437500      1.000000
 -0.187500 -0.187500  0.437500      1.000000
 -0.062500 -0.187500  0.437500      1.000000
  0.062500 -0.062500  0.437500      1.000000
  0.187500 -0.062500  0.437500      1.000000
  0.312500 -0.062500  0.437500      1.000000
  0.437500 -0.062500  0.437500      1.000000
 -0.437500 -0.062500  0.437500      1.000000
 -0.312500 -0.062500  0.437500      1.000000
 -0.187500 -0.062500  0.437500      1.000000
 -0.062500 -0.062500  0.437500      1.000000
  0.062500  0.062500 -0.437500      1.000000
  0.187500  0.062500 -0.437500      1.000000
  0.312500  0.062500 -0.437500      1.000000
  0.437500  0.062500 -0.437500      1.000000
 -0.437500  0.062500 -0.437500      1.000000
 -0.312500  0.062500 -0.437500      1.000000
 -0.187500  0.062500 -0.437500      1.000000
 -0.062500  0.062500 -0.437500      1.000000
  0.062500  0.187500 -0.437500      1.000000
  0.187500  0.187500 -0.437500      1.000000
  0.312500  0.187500 -0.437500      1.000000
  0.437500  0.187500 -0.437500      1.000000
 -0.437500  0.187500 -0.437500      1.000000
 -0.312500  0.187500 -0.437500      1.000000
 -0.187500  0.187500 -0.437500      1.000000
 -0.062500  0.187500 -0.437500      1.000000
  0.062500  0.312500 -0.437500      1.000000
  0.187500  0.312500 -0.437500      1.000000
  0.312500  0.312500 -0.437500      1.000000
  0.437500  0.312500 -0.437500      1.000000
 -0.437500  0.312500 -0.437500      1.000000
 -0.312500  0.312500 -0.437500      1.000000
 -0.187500  0.312500 -0.437500      1.000000
 -0.062500  0.312500 -0.437500      1.000000
  0.062500  0.437500 -0.437500      1.000000
  0.187500  0.437500 -0.437500      1.000000
  0.312500  0.437500 -0.437500      1.000000
  0.437500  0.437500 -0.437500      1.000000
 -0.437500  0.437500 -0.437500      1.000000
 -0.312500  0.437500 -0.437500      1.000000
 -0.187500  0.437500 -0.437500      1.000000
 -0.062500  0.437500 -0.437500      1.000000
  0.062500 -0.437500 -0.437500      1.000000
  0.187500 -0.437500 -0.437500      1.000000
  0.312500 -0.437500 -0.437500      1.000000
  0.437500 -0.437500 -0.437500      1.000000
 -0.437500 -0.437500 -0.437500      1.000000
 -0.312500 -0.437500 -0.437500      1.000000
 -0.187500 -0.437500 -0.437500      1.000000
 -0.062500 -0.437500 -0.437500      1.000000
  0.062500 -0.312500 -0.437500      1.000000
  0.187500 -0.312500 -0.437500      1.000000
  0.312500 -0.312500 -0.437500      1.000000
  0.437500 -0.312500 -0.437500      1.000000
 -0.437500 -0.312500 -0.437500      1.000000
 -0.312500 -0.312500 -0.437500      1.000000
 -0.187500 -0.312500 -0.437500      1.000000
 -0.062500 -0.312500 -0.437500      1.000000
  0.062500 -0.187500 -0.437500      1.000000
  0.187500 -0.187500 -0.437500      1.000000
  0.312500 -0.187500 -0.437500      1.000000
  0.437500 -0.187500 -0.437500      1.000000
 -0.437500 -0.187500 -0.437500      1.000000
 -0.312500 -0.187500 -0.437500      1.000000
 -0.187500 -0.187500 -0.437500      1.000000
 -0.062500 -0.187500 -0.437500      1.000000
  0.062500 -0.062500 -0.437500      1.000000
  0.187500 -0.062500 -0.437500      1.000000
  0.312500 -0.062500 -0.437500      1.000000
  0.437500 -0.062500 -0.437500      1.000000
 -0.437500 -0.062500 -0.437500      1.000000
 -0.312500 -0.062500 -0.437500      1.000000
 -0.187500 -0.062500 -0.437500      1.000000
 -0.062500 -0.062500 -0.437500      1.000000
  0.062500  0.062500 -0.312500      1.000000
  0.187500  0.062500 -0.312500      1.000000
  0.312500  0.062500 -0.312500      1.000000
  0.437500  0.062500 -0.312500      1.000000
 -0.437500  0.062500 -0.312500      1.000000
 -0.312500  0.062500 -0.312500      1.000000
 -0.187500  0.062500 -0.312500      1.000000
 -0.062500  0.062500 -0.312500      1.000000
  0.062500  0.187500 -0.312500      1.000000
  0.187500  0.187500 -0.312500      1.000000
  0.312500  0.187500 -0.312500      1.000000
  0.437500  0.187500 -0.312500      1.000000
 -0.437500  0.187500 -0.312500      1.000000
 -0.312500  0.187500 -0.312500      1.000000
 -0.187500  0.187500 -0.312500      1.000000
 -0.062500  0.187500 -0.312500      1.000000
  0.062500  0.312500 -0.312500      1.000000
  0.187500  0.312500 -0.312500      1.000000
  0.312500  0.312500 -0.312500      1.000000
  0.437500  0.312500 -0.312500      1.000000
 -0.437500  0.312500 -0.312500      1.000000
 -0.312500  0.312500 -0.312500      1.000000
 -0.187500  0.312500 -0.312500      1.000000
 -0.062500  0.312500 -0.312500      1.000000
  0.062500  0.437500 -0.312500      1.000000
  0.187500  0.437500 -0.312500      1.000000
  0.312500  0.437500 -0.312500      1.000000
  0.437500  0.437500 -0.312500      1.000000
 -0.437500  0.437500 -0.312500      1.000000
 -0.312500  0.437500 -0.312500      1.000000
 -0.187500  0.437500 -0.312500      1.000000
 -0.062500  0.437500 -0.312500      1.000000
  0.062500 -0.437500 -0.312500      1.000000
  0.187500 -0.437500 -0.312500      1.000000
  0.312500 -0.437500 -0.312500      1.000000
  0.437500 -0.437500 -0.312500      1.000000
 -0.437500 -0.437500 -0.312500      1.000000
 -0.312500 -0.437500 -0.312500      1.000000
 -0.187500 -0.437500 -0.312500      1.000000
 -0.062500 -0.437500 -0.312500      1.000000
  0.062500 -0.312500 -0.312500      1.000000
  0.187500 -0.312500 -0.312500      1.000000
  0.312500 -0.312500 -0.312500      1.000000
  0.437500 -0.312500 -0.312500      1.000000
 -0.437500 -0.312500 -0.312500      1.000000
 -0.312500 -0.312500 -0.312500      1.000000
 -0.187500 -0.312500 -0.312500      1.000000
 -0.062500 -0.312500 -0.312500      1.000000
  0.062500 -0.187500 -0.312500      1.000000
  0.187500 -0.187500 -0.312500      1.000000
  0.312500 -0.187500 -0.312500      1.000000
  0.437500 -0.187500 -0.312500      1.000000
 -0.437500 -0.187500 -0.312500      1.000000
 -0.312500 -0.187500 -0.312500      1.000000
 -0.187500 -0.187500 -0.312500      1.000000
 -0.062500 -0.187500 -0.312500      1.000000
  0.062500 -0.062500 -0.312500      1.000000
  0.187500 -0.062500 -0.312500      1.000000
  0.312500 -0.062500 -0.312500      1.000000
  0.437500 -0.062500 -0.312500      1.000000
 -0.437500 -0.062500 -0.312500      1.000000
 -0.312500 -0.062500 -0.312500      1.000000
 -0.187500 -0.062500 -0.312500      1.000000
 -0.062500 -0.062500 -0.312500      1.000000
  0.062500  0.062500 -0.187500      1.000000
  0.187500  0.062500 -0.187500      1.000000
  0.312500  0.062500 -0.187500      1.000000
  0.437500  0.062500 -0.187500      1.000000
 -0.437500  0.062500 -0.187500      1.000000
 -0.312500  0.062500 -0.187500      1.000000
 -0.187500  0.062500 -0.187500      1.000000
 -0.062500  0.062500 -0.187500      1.000000
  0.062500  0.187500 -0.187500      1.000000
  0.187500  0.187500 -0.187500      1.000000
  0.312500  0.187500 -0.187500      1.000000
  0.437500  0.187500 -0.187500      1.000000
 -0.437500  0.187500 -0.187500      1.000000
 -0.312500  0.187500 -0.187500      1.000000
 -0.187500  0.187500 -0.187500      1.000000
 -0.062500  0.187500 -0.187500      1.000000
  0.062500  0.312500 -0.187500      1.000000
  0.187500  0.312500 -0.187500      1.000000
  0.312500  0.312500 -0.187500      1.000000
  0.437500  0.312500 -0.187500      1.000000
 -0.437500  0.312500 -0.187500      1.000000
 -0.312500  0.312500 -0.187500      1.000000
 -0.187500  0.312500 -0.187500      1.000000
 -0.062500  0.312500 -0.187500      1.000000
  0.062500  0.437500 -0.187500      1.000000
  0.187500  0.437500 -0.187500      1.000000
  0.312500  0.437500 -0.187500      1.000000
  0.437500  0.437500 -0.187500      1.000000
 -0.437500  0.437500 -0.187500      1.000000
 -0.312500  0.437500 -0.187500      1.000000
 -0.187500  0.437500 -0.187500      1.000000
 -0.062500  0.437500 -0.187500      1.000000
  0.062500 -0.437500 -0.187500      1.000000
  0.187500 -0.437500 -0.187500      1.000000
  0.312500 -0.437500 -0.187500      1.000000
  0.437500 -0.437500 -0.187500      1.000000
 -0.437500 -0.437500 -0.187500      1.000000
 -0.312500 -0.437500 -0.187500      1.000000
 -0.187500 -0.437500 -0.187500      1.000000
 -0.062500 -0.437500 -0.187500      1.000000
  0.062500 -0.312500 -0.187500      1.000000
  0.187500 -0.312500 -0.187500      1.000000
  0.312500 -0.312500 -0.187500      1.000000
  0.437500 -0.312500 -0.187500      1.000000
 -0.437500 -0.312500 -0.187500      1.000000
 -0.312500 -0.312500 -0.187500      1.000000
 -0.187500 -0.312500 -0.187500      1.000000
 -0.062500 -0.312500 -0.187500      1.000000
  0.062500 -0.187500 -0.187500      1.000000
  0.187500 -0.187500 -0.187500      1.000000
  0.312500 -0.187500 -0.187500      1.000000
  0.437500 -0.187500 -0.187500      1.000000
 -0.437500 -0.187500 -0.187500      1.000000
 -0.312500 -0.187500 -0.187500      1.000000
 -0.187500 -0.187500 -0.187500      1.000000
 -0.062500 -0.187500 -0.187500      1.000000
  0.062500 -0.062500 -0.187500      1.000000
  0.187500 -0.062500 -0.187500      1.000000
  0.312500 -0.062500 -0.187500      1.000000
  0.437500 -0.062500 -0.187500      1.000000
 -0.437500 -0.062500 -0.187500      1.000000
 -0.312500 -0.062500 -0.187500      1.000000
 -0.187500 -0.062500 -0.187500      1.000000
 -0.062500 -0.062500 -0.187500      1.000000
  0.062500  0.062500 -0.062500      1.000000
  0.187500  0.062500 -0.062500      1.000000
  0.312500  0.062500 -0.062500      1.000000
  0.437500  0.062500 -0.062500      1.000000
 -0.437500  0.062500 -0.062500      1.000000
 -0.312500  0.062500 -0.062500      1.000000
 -0.187500  0.062500 -0.062500      1.000000
 -0.062500  0.062500 -0.062500      1.000000
  0.062500  0.187500 -0.062500      1.000000
  0.187500  0.187500 -0.062500      1.000000
  0.312500  0.187500 -0.062500      1.000000
  0.437500  0.187500 -0.062500      1.000000
 -0.437500  0.187500 -0.062500      1.000000
 -0.312500  0.187500 -0.062500      1.000000
 -0.187500  0.187500 -0.062500      1.000000
 -0.062500  0.187500 -0.062500      1.000000
  0.062500  0.312500 -0.062500      1.000000
  0.187500  0.312500 -0.062500      1.000000
  0.312500  0.312500 -0.062500      1.000000
  0.437500  0.312500 -0.062500      1.000000
 -0.437500  0.312500 -0.062500      1.000000
 -0.312500  0.312500 -0.062500      1.000000
 -0.187500  0.312500 -0.062500      1.000000
 -0.062500  0.312500 -0.062500      1.000000
  0.062500  0.437500 -0.062500      1.000000
  0.187500  0.437500 -0.062500      1.000000
  0.312500  0.437500 -0.062500      1.000000
  0.437500  0.437500 -0.062500      1.000000
 -0.437500  0.437500 -0.062500      1.000000
 -0.312500  0.437500 -0.062500      1.000000
 -0.187500  0.437500 -0.062500      1.000000
 -0.062500  0.437500 -0.062500      1.000000
  0.062500 -0.437500 -0.062500      1.000000
  0.187500 -0.437500 -0.062500      1.000000
  0.312500 -0.437500 -0.062500      1.000000
  0.437500 -0.437500 -0.062500      1.000000
 -0.437500 -0.437500 -0.062500      1.000000
 -0.312500 -0.437500 -0.062500      1.000000
 -0.187500 -0.437500 -0.062500      1.000000
 -0.062500 -0.437500 -0.062500      1.000000
  0.062500 -0.312500 -0.062500      1.000000
  0.187500 -0.312500 -0.062500      1.000000
  0.312500 -0.312500 -0.062500      1.000000
  0.437500 -0.312500 -0.062500      1.000000
 -0.437500 -0.312500 -0.062500      1.000000
 -0.312500 -0.312500 -0.062500      1.000000
 -0.187500 -0.312500 -0.062500      1.000000
 -0.062500 -0.312500 -0.062500      1.000000
  0.062500 -0.187500 -0.062500      1.000000
  0.187500 -0.187500 -0.062500      1.000000
  0.312500 -0.187500 -0.062500      1.000000
  0.437500 -0.187500 -0.062500      1.000000
 -0.437500 -0.187500 -0.062500      1.000000
 -0.312500 -0.187500 -0.062500      1.000000
 -0.187500 -0.187500 -0.062500      1.000000
 -0.062500 -0.187500 -0.062500      1.000000
  0.062500 -0.062500 -0.062500      1.000000
  0.187500 -0.062500 -0.062500      1.000000
  0.312500 -0.062500 -0.062500      1.000000
  0.437500 -0.062500 -0.062500      1.000000
 -0.437500 -0.062500 -0.062500      1.000000
 -0.312500 -0.062500 -0.062500      1.000000
 -0.187500 -0.062500 -0.062500      1.000000
 -0.062500 -0.062500 -0.062500      1.000000
 
 Following cartesian coordinates:
            Coordinates               Weight
  0.011539  0.019986  0.004836      1.000000
  0.034616  0.033310  0.004836      1.000000
  0.057694  0.046634  0.004836      1.000000
  0.080772  0.059957  0.004836      1.000000
 -0.080772 -0.033310  0.004836      1.000000
 -0.057694 -0.019986  0.004836      1.000000
 -0.034616 -0.006662  0.004836      1.000000
 -0.011539  0.006662  0.004836      1.000000
  0.011539  0.046634  0.004836      1.000000
  0.034616  0.059957  0.004836      1.000000
  0.057694  0.073281  0.004836      1.000000
  0.080772  0.086605  0.004836      1.000000
 -0.080772 -0.006662  0.004836      1.000000
 -0.057694  0.006662  0.004836      1.000000
 -0.034616  0.019986  0.004836      1.000000
 -0.011539  0.033310  0.004836      1.000000
  0.011539  0.073281  0.004836      1.000000
  0.034616  0.086605  0.004836      1.000000
  0.057694  0.099929  0.004836      1.000000
  0.080772  0.113253  0.004836      1.000000
 -0.080772  0.019986  0.004836      1.000000
 -0.057694  0.033310  0.004836      1.000000
 -0.034616  0.046634  0.004836      1.000000
 -0.011539  0.059957  0.004836      1.000000
  0.011539  0.099929  0.004836      1.000000
  0.034616  0.113253  0.004836      1.000000
  0.057694  0.126577  0.004836      1.000000
  0.080772  0.139901  0.004836      1.000000
 -0.080772  0.046634  0.004836      1.000000
 -0.057694  0.059957  0.004836      1.000000
 -0.034616  0.073281  0.004836      1.000000
 -0.011539  0.086605  0.004836      1.000000
  0.011539 -0.086605  0.004836      1.000000
  0.034616 -0.073281  0.004836      1.000000
  0.057694 -0.059957  0.004836      1.000000
  0.080772 -0.046634  0.004836      1.000000
 -0.080772 -0.139901  0.004836      1.000000
 -0.057694 -0.126577  0.004836      1.000000
 -0.034616 -0.113253  0.004836      1.000000
 -0.011539 -0.099929  0.004836      1.000000
  0.011539 -0.059957  0.004836      1.000000
  0.034616 -0.046634  0.004836      1.000000
  0.057694 -0.033310  0.004836      1.000000
  0.080772 -0.019986  0.004836      1.000000
 -0.080772 -0.113253  0.004836      1.000000
 -0.057694 -0.099929  0.004836      1.000000
 -0.034616 -0.086605  0.004836      1.000000
 -0.011539 -0.073281  0.004836      1.000000
  0.011539 -0.033310  0.004836      1.000000
  0.034616 -0.019986  0.004836      1.000000
  0.057694 -0.006662  0.004836      1.000000
  0.080772  0.006662  0.004836      1.000000
 -0.080772 -0.086605  0.004836      1.000000
 -0.057694 -0.073281  0.004836      1.000000
 -0.034616 -0.059957  0.004836      1.000000
 -0.011539 -0.046634  0.004836      1.000000
  0.011539 -0.006662  0.004836      1.000000
  0.034616  0.006662  0.004836      1.000000
  0.057694  0.019986  0.004836      1.000000
  0.080772  0.033310  0.004836      1.000000
 -0.080772 -0.059957  0.004836      1.000000
 -0.057694 -0.046634  0.004836      1.000000
 -0.034616 -0.033310  0.004836      1.000000
 -0.011539 -0.019986  0.004836      1.000000
  0.011539  0.019986  0.014507      1.000000
  0.034616  0.033310  0.014507      1.000000
  0.057694  0.046634  0.014507      1.000000
  0.080772  0.059957  0.014507      1.000000
 -0.080772 -0.033310  0.014507      1.000000
 -0.057694 -0.019986  0.014507      1.000000
 -0.034616 -0.006662  0.014507      1.000000
 -0.011539  0.006662  0.014507      1.000000
  0.011539  0.046634  0.014507      1.000000
  0.034616  0.059957  0.014507      1.000000
  0.057694  0.073281  0.014507      1.000000
  0.080772  0.086605  0.014507      1.000000
 -0.080772 -0.006662  0.014507      1.000000
 -0.057694  0.006662  0.014507      1.000000
 -0.034616  0.019986  0.014507      1.000000
 -0.011539  0.033310  0.014507      1.000000
  0.011539  0.073281  0.014507      1.000000
  0.034616  0.086605  0.014507      1.000000
  0.057694  0.099929  0.014507      1.000000
  0.080772  0.113253  0.014507      1.000000
 -0.080772  0.019986  0.014507      1.000000
 -0.057694  0.033310  0.014507      1.000000
 -0.034616  0.046634  0.014507      1.000000
 -0.011539  0.059957  0.014507      1.000000
  0.011539  0.099929  0.014507      1.000000
  0.034616  0.113253  0.014507      1.000000
  0.057694  0.126577  0.014507      1.000000
  0.080772  0.139901  0.014507      1.000000
 -0.080772  0.046634  0.014507      1.000000
 -0.057694  0.059957  0.014507      1.000000
 -0.034616  0.073281  0.014507      1.000000
 -0.011539  0.086605  0.014507      1.000000
  0.011539 -0.086605  0.014507      1.000000
  0.034616 -0.073281  0.014507      1.000000
  0.057694 -0.059957  0.014507      1.000000
  0.080772 -0.046634  0.014507      1.000000
 -0.080772 -0.139901  0.014507      1.000000
 -0.057694 -0.126577  0.014507      1.000000
 -0.034616 -0.113253  0.014507      1.000000
 -0.011539 -0.099929  0.014507      1.000000
  0.011539 -0.059957  0.014507      1.000000
  0.034616 -0.046634  0.014507      1.000000
  0.057694 -0.033310  0.014507      1.000000
  0.080772 -0.019986  0.014507      1.000000
 -0.080772 -0.113253  0.014507      1.000000
 -0.057694 -0.099929  0.014507      1.000000
 -0.034616 -0.086605  0.014507      1.000000
 -0.011539 -0.073281  0.014507      1.000000
  0.011539 -0.033310  0.014507      1.000000
  0.034616 -0.019986  0.014507      1.000000
  0.057694 -0.006662  0.014507      1.000000
  0.080772  0.006662  0.014507      1.000000
 -0.080772 -0.086605  0.014507      1.000000
 -0.057694 -0.073281  0.014507      1.000000
 -0.034616 -0.059957  0.014507      1.000000
 -0.011539 -0.046634  0.014507      1.000000
  0.011539 -0.006662  0.014507      1.000000
  0.034616  0.006662  0.014507      1.000000
  0.057694  0.019986  0.014507      1.000000
  0.080772  0.033310  0.014507      1.000000
 -0.080772 -0.059957  0.014507      1.000000
 -0.057694 -0.046634  0.014507      1.000000
 -0.034616 -0.033310  0.014507      1.000000
 -0.011539 -0.019986  0.014507      1.000000
  0.011539  0.019986  0.024179      1.000000
  0.034616  0.033310  0.024179      1.000000
  0.057694  0.046634  0.024179      1.000000
  0.080772  0.059957  0.024179      1.000000
 -0.080772 -0.033310  0.024179      1.000000
 -0.057694 -0.019986  0.024179      1.000000
 -0.034616 -0.006662  0.024179      1.000000
 -0.011539  0.006662  0.024179      1.000000
  0.011539  0.046634  0.024179      1.000000
  0.034616  0.059957  0.024179      1.000000
  0.057694  0.073281  0.024179      1.000000
  0.080772  0.086605  0.024179      1.000000
 -0.080772 -0.006662  0.024179      1.000000
 -0.057694  0.006662  0.024179      1.000000
 -0.034616  0.019986  0.024179      1.000000
 -0.011539  0.033310  0.024179      1.000000
  0.011539  0.073281  0.024179      1.000000
  0.034616  0.086605  0.024179      1.000000
  0.057694  0.099929  0.024179      1.000000
  0.080772  0.113253  0.024179      1.000000
 -0.080772  0.019986  0.024179      1.000000
 -0.057694  0.033310  0.024179      1.000000
 -0.034616  0.046634  0.024179      1.000000
 -0.011539  0.059957  0.024179      1.000000
  0.011539  0.099929  0.024179      1.000000
  0.034616  0.113253  0.024179      1.000000
  0.057694  0.126577  0.024179      1.000000
  0.080772  0.139901  0.024179      1.000000
 -0.080772  0.046634  0.024179      1.000000
 -0.057694  0.059957  0.024179      1.000000
 -0.034616  0.073281  0.024179      1.000000
 -0.011539  0.086605  0.024179      1.000000
  0.011539 -0.086605  0.024179      1.000000
  0.034616 -0.073281  0.024179      1.000000
  0.057694 -0.059957  0.024179      1.000000
  0.080772 -0.046634  0.024179      1.000000
 -0.080772 -0.139901  0.024179      1.000000
 -0.057694 -0.126577  0.024179      1.000000
 -0.034616 -0.113253  0.024179      1.000000
 -0.011539 -0.099929  0.024179      1.000000
  0.011539 -0.059957  0.024179      1.000000
  0.034616 -0.046634  0.024179      1.000000
  0.057694 -0.033310  0.024179      1.000000
  0.080772 -0.019986  0.024179      1.000000
 -0.080772 -0.113253  0.024179      1.000000
 -0.057694 -0.099929  0.024179      1.000000
 -0.034616 -0.086605  0.024179      1.000000
 -0.011539 -0.073281  0.024179      1.000000
  0.011539 -0.033310  0.024179      1.000000
  0.034616 -0.019986  0.024179      1.000000
  0.057694 -0.006662  0.024179      1.000000
  0.080772  0.006662  0.024179      1.000000
 -0.080772 -0.086605  0.024179      1.000000
 -0.057694 -0.073281  0.024179      1.000000
 -0.034616 -0.059957  0.024179      1.000000
 -0.011539 -0.046634  0.024179      1.000000
  0.011539 -0.006662  0.024179      1.000000
  0.034616  0.006662  0.024179      1.000000
  0.057694  0.019986  0.024179      1.000000
  0.080772  0.033310  0.024179      1.000000
 -0.080772 -0.059957  0.024179      1.000000
 -0.057694 -0.046634  0.024179      1.000000
 -0.034616 -0.033310  0.024179      1.000000
 -0.011539 -0.019986  0.024179      1.000000
  0.011539  0.019986  0.033850      1.000000
  0.034616  0.033310  0.033850      1.000000
  0.057694  0.046634  0.033850      1.000000
  0.080772  0.059957  0.033850      1.000000
 -0.080772 -0.033310  0.033850      1.000000
 -0.057694 -0.019986  0.033850      1.000000
 -0.034616 -0.006662  0.033850      1.000000
 -0.011539  0.006662  0.033850      1.000000
  0.011539  0.046634  0.033850      1.000000
  0.034616  0.059957  0.033850      1.000000
  0.057694  0.073281  0.033850      1.000000
  0.080772  0.086605  0.033850      1.000000
 -0.080772 -0.006662  0.033850      1.000000
 -0.057694  0.006662  0.033850      1.000000
 -0.034616  0.019986  0.033850      1.000000
 -0.011539  0.033310  0.033850      1.000000
  0.011539  0.073281  0.033850      1.000000
  0.034616  0.086605  0.033850      1.000000
  0.057694  0.099929  0.033850      1.000000
  0.080772  0.113253  0.033850      1.000000
 -0.080772  0.019986  0.033850      1.000000
 -0.057694  0.033310  0.033850      1.000000
 -0.034616  0.046634  0.033850      1.000000
 -0.011539  0.059957  0.033850      1.000000
  0.011539  0.099929  0.033850      1.000000
  0.034616  0.113253  0.033850      1.000000
  0.057694  0.126577  0.033850      1.000000
  0.080772  0.139901  0.033850      1.000000
 -0.080772  0.046634  0.033850      1.000000
 -0.057694  0.059957  0.033850      1.000000
 -0.034616  0.073281  0.033850      1.000000
 -0.011539  0.086605  0.033850      1.000000
  0.011539 -0.086605  0.033850      1.000000
  0.034616 -0.073281  0.033850      1.000000
  0.057694 -0.059957  0.033850      1.000000
  0.080772 -0.046634  0.033850      1.000000
 -0.080772 -0.139901  0.033850      1.000000
 -0.057694 -0.126577  0.033850      1.000000
 -0.034616 -0.113253  0.033850      1.000000
 -0.011539 -0.099929  0.033850      1.000000
  0.011539 -0.059957  0.033850      1.000000
  0.034616 -0.046634  0.033850      1.000000
  0.057694 -0.033310  0.033850      1.000000
  0.080772 -0.019986  0.033850      1.000000
 -0.080772 -0.113253  0.033850      1.000000
 -0.057694 -0.099929  0.033850      1.000000
 -0.034616 -0.086605  0.033850      1.000000
 -0.011539 -0.073281  0.033850      1.000000
  0.011539 -0.033310  0.033850      1.000000
  0.034616 -0.019986  0.033850      1.000000
  0.057694 -0.006662  0.033850      1.000000
  0.080772  0.006662  0.033850      1.000000
 -0.080772 -0.086605  0.033850      1.000000
 -0.057694 -0.073281  0.033850      1.000000
 -0.034616 -0.059957  0.033850      1.000000
 -0.011539 -0.046634  0.033850      1.000000
  0.011539 -0.006662  0.033850      1.000000
  0.034616  0.006662  0.033850      1.000000
  0.057694  0.019986  0.033850      1.000000
  0.080772  0.033310  0.033850      1.000000
 -0.080772 -0.059957  0.033850      1.000000
 -0.057694 -0.046634  0.033850      1.000000
 -0.034616 -0.033310  0.033850      1.000000
 -0.011539 -0.019986  0.033850      1.000000
  0.011539  0.019986 -0.033850      1.000000
  0.034616  0.033310 -0.033850      1.000000
  0.057694  0.046634 -0.033850      1.000000
  0.080772  0.059957 -0.033850      1.000000
 -0.080772 -0.033310 -0.033850      1.000000
 -0.057694 -0.019986 -0.033850      1.000000
 -0.034616 -0.006662 -0.033850      1.000000
 -0.011539  0.006662 -0.033850      1.000000
  0.011539  0.046634 -0.033850      1.000000
  0.034616  0.059957 -0.033850      1.000000
  0.057694  0.073281 -0.033850      1.000000
  0.080772  0.086605 -0.033850      1.000000
 -0.080772 -0.006662 -0.033850      1.000000
 -0.057694  0.006662 -0.033850      1.000000
 -0.034616  0.019986 -0.033850      1.000000
 -0.011539  0.033310 -0.033850      1.000000
  0.011539  0.073281 -0.033850      1.000000
  0.034616  0.086605 -0.033850      1.000000
  0.057694  0.099929 -0.033850      1.000000
  0.080772  0.113253 -0.033850      1.000000
 -0.080772  0.019986 -0.033850      1.000000
 -0.057694  0.033310 -0.033850      1.000000
 -0.034616  0.046634 -0.033850      1.000000
 -0.011539  0.059957 -0.033850      1.000000
  0.011539  0.099929 -0.033850      1.000000
  0.034616  0.113253 -0.033850      1.000000
  0.057694  0.126577 -0.033850      1.000000
  0.080772  0.139901 -0.033850      1.000000
 -0.080772  0.046634 -0.033850      1.000000
 -0.057694  0.059957 -0.033850      1.000000
 -0.034616  0.073281 -0.033850      1.000000
 -0.011539  0.086605 -0.033850      1.000000
  0.011539 -0.086605 -0.033850      1.000000
  0.034616 -0.073281 -0.033850      1.000000
  0.057694 -0.059957 -0.033850      1.000000
  0.080772 -0.046634 -0.033850      1.000000
 -0.080772 -0.139901 -0.033850      1.000000
 -0.057694 -0.126577 -0.033850      1.000000
 -0.034616 -0.113253 -0.033850      1.000000
 -0.011539 -0.099929 -0.033850      1.000000
  0.011539 -0.059957 -0.033850      1.000000
  0.034616 -0.046634 -0.033850      1.000000
  0.057694 -0.033310 -0.033850      1.000000
  0.080772 -0.019986 -0.033850      1.000000
 -0.080772 -0.113253 -0.033850      1.000000
 -0.057694 -0.099929 -0.033850      1.000000
 -0.034616 -0.086605 -0.033850      1.000000
 -0.011539 -0.073281 -0.033850      1.000000
  0.011539 -0.033310 -0.033850      1.000000
  0.034616 -0.019986 -0.033850      1.000000
  0.057694 -0.006662 -0.033850      1.000000
  0.080772  0.006662 -0.033850      1.000000
 -0.080772 -0.086605 -0.033850      1.000000
 -0.057694 -0.073281 -0.033850      1.000000
 -0.034616 -0.059957 -0.033850      1.000000
 -0.011539 -0.046634 -0.033850      1.000000
  0.011539 -0.006662 -0.033850      1.000000
  0.034616  0.006662 -0.033850      1.000000
  0.057694  0.019986 -0.033850      1.000000
  0.080772  0.033310 -0.033850      1.000000
 -0.080772 -0.059957 -0.033850      1.000000
 -0.057694 -0.046634 -0.033850      1.000000
 -0.034616 -0.033310 -0.033850      1.000000
 -0.011539 -0.019986 -0.033850      1.000000
  0.011539  0.019986 -0.024179      1.000000
  0.034616  0.033310 -0.024179      1.000000
  0.057694  0.046634 -0.024179      1.000000
  0.080772  0.059957 -0.024179      1.000000
 -0.080772 -0.033310 -0.024179      1.000000
 -0.057694 -0.019986 -0.024179      1.000000
 -0.034616 -0.006662 -0.024179      1.000000
 -0.011539  0.006662 -0.024179      1.000000
  0.011539  0.046634 -0.024179      1.000000
  0.034616  0.059957 -0.024179      1.000000
  0.057694  0.073281 -0.024179      1.000000
  0.080772  0.086605 -0.024179      1.000000
 -0.080772 -0.006662 -0.024179      1.000000
 -0.057694  0.006662 -0.024179      1.000000
 -0.034616  0.019986 -0.024179      1.000000
 -0.011539  0.033310 -0.024179      1.000000
  0.011539  0.073281 -0.024179      1.000000
  0.034616  0.086605 -0.024179      1.000000
  0.057694  0.099929 -0.024179      1.000000
  0.080772  0.113253 -0.024179      1.000000
 -0.080772  0.019986 -0.024179      1.000000
 -0.057694  0.033310 -0.024179      1.000000
 -0.034616  0.046634 -0.024179      1.000000
 -0.011539  0.059957 -0.024179      1.000000
  0.011539  0.099929 -0.024179      1.000000
  0.034616  0.113253 -0.024179      1.000000
  0.057694  0.126577 -0.024179      1.000000
  0.080772  0.139901 -0.024179      1.000000
 -0.080772  0.046634 -0.024179      1.000000
 -0.057694  0.059957 -0.024179      1.000000
 -0.034616  0.073281 -0.024179      1.000000
 -0.011539  0.086605 -0.024179      1.000000
  0.011539 -0.086605 -0.024179      1.000000
  0.034616 -0.073281 -0.024179      1.000000
  0.057694 -0.059957 -0.024179      1.000000
  0.080772 -0.046634 -0.024179      1.000000
 -0.080772 -0.139901 -0.024179      1.000000
 -0.057694 -0.126577 -0.024179      1.000000
 -0.034616 -0.113253 -0.024179      1.000000
 -0.011539 -0.099929 -0.024179      1.000000
  0.011539 -0.059957 -0.024179      1.000000
  0.034616 -0.046634 -0.024179      1.000000
  0.057694 -0.033310 -0.024179      1.000000
  0.080772 -0.019986 -0.024179      1.000000
 -0.080772 -0.113253 -0.024179      1.000000
 -0.057694 -0.099929 -0.024179      1.000000
 -0.034616 -0.086605 -0.024179      1.000000
 -0.011539 -0.073281 -0.024179      1.000000
  0.011539 -0.033310 -0.024179      1.000000
  0.034616 -0.019986 -0.024179      1.000000
  0.057694 -0.006662 -0.024179      1.000000
  0.080772  0.006662 -0.024179      1.000000
 -0.080772 -0.086605 -0.024179      1.000000
 -0.057694 -0.073281 -0.024179      1.000000
 -0.034616 -0.059957 -0.024179      1.000000
 -0.011539 -0.046634 -0.024179      1.000000
  0.011539 -0.006662 -0.024179      1.000000
  0.034616  0.006662 -0.024179      1.000000
  0.057694  0.019986 -0.024179      1.000000
  0.080772  0.033310 -0.024179      1.000000
 -0.080772 -0.059957 -0.024179      1.000000
 -0.057694 -0.046634 -0.024179      1.000000
 -0.034616 -0.033310 -0.024179      1.000000
 -0.011539 -0.019986 -0.024179      1.000000
  0.011539  0.019986 -0.014507      1.000000
  0.034616  0.033310 -0.014507      1.000000
  0.057694  0.046634 -0.014507      1.000000
  0.080772  0.059957 -0.014507      1.000000
 -0.080772 -0.033310 -0.014507      1.000000
 -0.057694 -0.019986 -0.014507      1.000000
 -0.034616 -0.006662 -0.014507      1.000000
 -0.011539  0.006662 -0.014507      1.000000
  0.011539  0.046634 -0.014507      1.000000
  0.034616  0.059957 -0.014507      1.000000
  0.057694  0.073281 -0.014507      1.000000
  0.080772  0.086605 -0.014507      1.000000
 -0.080772 -0.006662 -0.014507      1.000000
 -0.057694  0.006662 -0.014507      1.000000
 -0.034616  0.019986 -0.014507      1.000000
 -0.011539  0.033310 -0.014507      1.000000
  0.011539  0.073281 -0.014507      1.000000
  0.034616  0.086605 -0.014507      1.000000
  0.057694  0.099929 -0.014507      1.000000
  0.080772  0.113253 -0.014507      1.000000
 -0.080772  0.019986 -0.014507      1.000000
 -0.057694  0.033310 -0.014507      1.000000
 -0.034616  0.046634 -0.014507      1.000000
 -0.011539  0.059957 -0.014507      1.000000
  0.011539  0.099929 -0.014507      1.000000
  0.034616  0.113253 -0.014507      1.000000
  0.057694  0.126577 -0.014507      1.000000
  0.080772  0.139901 -0.014507      1.000000
 -0.080772  0.046634 -0.014507      1.000000
 -0.057694  0.059957 -0.014507      1.000000
 -0.034616  0.073281 -0.014507      1.000000
 -0.011539  0.086605 -0.014507      1.000000
  0.011539 -0.086605 -0.014507      1.000000
  0.034616 -0.073281 -0.014507      1.000000
  0.057694 -0.059957 -0.014507      1.000000
  0.080772 -0.046634 -0.014507      1.000000
 -0.080772 -0.139901 -0.014507      1.000000
 -0.057694 -0.126577 -0.014507      1.000000
 -0.034616 -0.113253 -0.014507      1.000000
 -0.011539 -0.099929 -0.014507      1.000000
  0.011539 -0.059957 -0.014507      1.000000
  0.034616 -0.046634 -0.014507      1.000000
  0.057694 -0.033310 -0.014507      1.000000
  0.080772 -0.019986 -0.014507      1.000000
 -0.080772 -0.113253 -0.014507      1.000000
 -0.057694 -0.099929 -0.014507      1.000000
 -0.034616 -0.086605 -0.014507      1.000000
 -0.011539 -0.073281 -0.014507      1.000000
  0.011539 -0.033310 -0.014507      1.000000
  0.034616 -0.019986 -0.014507      1.000000
  0.057694 -0.006662 -0.014507      1.000000
  0.080772  0.006662 -0.014507      1.000000
 -0.080772 -0.086605 -0.014507      1.000000
 -0.057694 -0.073281 -0.014507      1.000000
 -0.034616 -0.059957 -0.014507      1.000000
 -0.011539 -0.046634 -0.014507      1.000000
  0.011539 -0.006662 -0.014507      1.000000
  0.034616  0.006662 -0.014507      1.000000
  0.057694  0.019986 -0.014507      1.000000
  0.080772  0.033310 -0.014507      1.000000
 -0.080772 -0.059957 -0.014507      1.000000
 -0.057694 -0.046634 -0.014507      1.000000
 -0.034616 -0.033310 -0.014507      1.000000
 -0.011539 -0.019986 -0.014507      1.000000
  0.011539  0.019986 -0.004836      1.000000
  0.034616  0.033310 -0.004836      1.000000
  0.057694  0.046634 -0.004836      1.000000
  0.080772  0.059957 -0.004836      1.000000
 -0.080772 -0.033310 -0.004836      1.000000
 -0.057694 -0.019986 -0.004836      1.000000
 -0.034616 -0.006662 -0.004836      1.000000
 -0.011539  0.006662 -0.004836      1.000000
  0.011539  0.046634 -0.004836      1.000000
  0.034616  0.059957 -0.004836      1.000000
  0.057694  0.073281 -0.004836      1.000000
  0.080772  0.086605 -0.004836      1.000000
 -0.080772 -0.006662 -0.004836      1.000000
 -0.057694  0.006662 -0.004836      1.000000
 -0.034616  0.019986 -0.004836      1.000000
 -0.011539  0.033310 -0.004836      1.000000
  0.011539  0.073281 -0.004836      1.000000
  0.034616  0.086605 -0.004836      1.000000
  0.057694  0.099929 -0.004836      1.000000
  0.080772  0.113253 -0.004836      1.000000
 -0.080772  0.019986 -0.004836      1.000000
 -0.057694  0.033310 -0.004836      1.000000
 -0.034616  0.046634 -0.004836      1.000000
 -0.011539  0.059957 -0.004836      1.000000
  0.011539  0.099929 -0.004836      1.000000
  0.034616  0.113253 -0.004836      1.000000
  0.057694  0.126577 -0.004836      1.000000
  0.080772  0.139901 -0.004836      1.000000
 -0.080772  0.046634 -0.004836      1.000000
 -0.057694  0.059957 -0.004836      1.000000
 -0.034616  0.073281 -0.004836      1.000000
 -0.011539  0.086605 -0.004836      1.000000
  0.011539 -0.086605 -0.004836      1.000000
  0.034616 -0.073281 -0.004836      1.000000
  0.057694 -0.059957 -0.004836      1.000000
  0.080772 -0.046634 -0.004836      1.000000
 -0.080772 -0.139901 -0.004836      1.000000
 -0.057694 -0.126577 -0.004836      1.000000
 -0.034616 -0.113253 -0.004836      1.000000
 -0.011539 -0.099929 -0.004836      1.000000
  0.011539 -0.059957 -0.004836      1.000000
  0.034616 -0.046634 -0.004836      1.000000
  0.057694 -0.033310 -0.004836      1.000000
  0.080772 -0.019986 -0.004836      1.000000
 -0.080772 -0.113253 -0.004836      1.000000
 -0.057694 -0.099929 -0.004836      1.000000
 -0.034616 -0.086605 -0.004836      1.000000
 -0.011539 -0.073281 -0.004836      1.000000
  0.011539 -0.033310 -0.004836      1.000000
  0.034616 -0.019986 -0.004836      1.000000
  0.057694 -0.006662 -0.004836      1.000000
  0.080772  0.006662 -0.004836      1.000000
 -0.080772 -0.086605 -0.004836      1.000000
 -0.057694 -0.073281 -0.004836      1.000000
 -0.034616 -0.059957 -0.004836      1.000000
 -0.011539 -0.046634 -0.004836      1.000000
  0.011539 -0.006662 -0.004836      1.000000
  0.034616  0.006662 -0.004836      1.000000
  0.057694  0.019986 -0.004836      1.000000
  0.080772  0.033310 -0.004836      1.000000
 -0.080772 -0.059957 -0.004836      1.000000
 -0.057694 -0.046634 -0.004836      1.000000
 -0.034616 -0.033310 -0.004836      1.000000
 -0.011539 -0.019986 -0.004836      1.000000
 


--------------------------------------------------------------------------------------------------------




 Dimension of arrays:
   k-points           NKPTS =    512   k-points in BZ     NKDIM =    512   number of bands    NBANDS=    136
   number of dos      NEDOS =    301   number of ions     NIONS =     29
   non local maximal  LDIM  =      8   non local SUM 2l+1 LMDIM =     32
   total plane-waves  NPLWV = 248832
   max r-space proj   IRMAX =  13224   max aug-charges    IRDMAX= 316916
   dimension x,y,z NGX =    48 NGY =   48 NGZ =  108
   dimension x,y,z NGXF=    96 NGYF=   96 NGZF=  216
   support grid    NGXF=   192 NGYF=  192 NGZF=  432
   ions per type =               6   6  17
   NGX,Y,Z   is equivalent  to a cutoff of  14.73, 14.73, 13.89 a.u.
   NGXF,Y,Z  is equivalent  to a cutoff of  29.46, 29.46, 27.78 a.u.

 SYSTEM =  Default                                 
 POSCAR =  La6 Ni6 O17                             

 Startparameter for this run:
   NWRITE =      2    write-flag & timer
   PREC   = accura    normal or accurate (medium, high low for compatibility)
   ISTART =      0    job   : 0-new  1-cont  2-samecut
   ICHARG =      2    charge: 1-file 2-atom 10-const
   ISPIN  =      1    spin polarized calculation?
   LNONCOLLINEAR =      F non collinear calculations
   LSORBIT =      F    spin-orbit coupling
   INIWAV =      1    electr: 0-lowe 1-rand  2-diag
   LASPH  =      T    aspherical Exc in radial PAW
   METAGGA=      F    non-selfconsistent MetaGGA calc.

 Electronic Relaxation 1
   ENCUT  =  600.0 eV  44.10 Ry    6.64 a.u.  10.82 10.82 25.81*2*pi/ulx,y,z
   ENINI  =  600.0     initial cutoff
   ENAUG  =  605.4 eV  augmentation charge cutoff
   NELM   =    100;   NELMIN=  8; NELMDL= -5     # of ELM steps 
   EDIFF  = 0.1E-07   stopping-criterion for ELM
   LREAL  =      T    real-space projection
   NLSPLINE    = F    spline interpolate recip. space projectors
   LCOMPAT=      F    compatible to vasp.4.4
   GGA_COMPAT  = T    GGA compatible to vasp.4.4-vasp.4.6
   LMAXPAW     = -100 max onsite density
   LMAXMIX     =    4 max onsite mixed and CHGCAR
   VOSKOWN=      0    Vosko Wilk Nusair interpolation
   ROPT   =   -0.00025  -0.00025  -0.00025
 Ionic relaxation
   EDIFFG = 0.1E-06   stopping-criterion for IOM
   NSW    =      0    number of steps for IOM
   NBLOCK =      1;   KBLOCK =      1    inner block; outer block 
   IBRION =     -1    ionic relax: 0-MD 1-quasi-New 2-CG
   NFREE  =      0    steps in history (QN), initial steepest desc. (CG)
   ISIF   =      2    stress and relaxation
   IWAVPR =     10    prediction:  0-non 1-charg 2-wave 3-comb
   ISYM   =     -1    0-nonsym 1-usesym 2-fastsym
   LCORR  =      T    Harris-Foulkes like correction to forces

   POTIM  = 0.5000    time-step for ionic-motion
   TEIN   =    0.0    initial temperature
   TEBEG  =    0.0;   TEEND  =   0.0 temperature during run
   SMASS  =  -3.00    Nose mass-parameter (am)
   estimated Nose-frequenzy (Omega)   =  0.10E-29 period in steps =****** mass=  -0.670E-27a.u.
   SCALEE = 1.0000    scale energy and forces
   NPACO  =    256;   APACO  = 16.0  distance and # of slots for P.C.
   PSTRESS=    0.0 pullay stress

  Mass of Ions in am
   POMASS = 138.90 58.69 16.00
  Ionic Valenz
   ZVAL   =  11.00 10.00  6.00
  Atomic Wigner-Seitz radii
   RWIGS  =  -1.00 -1.00 -1.00
  virtual crystal weights 
   VCA    =   1.00  1.00  1.00
   NELECT =     228.0000    total number of electrons
   NUPDOWN=      -1.0000    fix difference up-down

 DOS related values:
   EMIN   =  10.00;   EMAX   =-10.00  energy-range for DOS
   EFERMI =   0.00
   ISMEAR =     2;   SIGMA  =   0.20  broadening in eV -4-tet -1-fermi 0-gaus

 Electronic relaxation 2 (details)
   IALGO  =     38    algorithm
   LDIAG  =      T    sub-space diagonalisation (order eigenvalues)
   LSUBROT=      F    optimize rotation matrix (better conditioning)
   TURBO    =      0    0=normal 1=particle mesh
   IRESTART =      0    0=no restart 2=restart with 2 vectors
   NREBOOT  =      0    no. of reboots
   NMIN     =      0    reboot dimension
   EREF     =   0.00    reference energy to select bands
   IMIX   =      4    mixing-type and parameters
     AMIX     =   0.40;   BMIX     =  1.00
     AMIX_MAG =   1.60;   BMIX_MAG =  1.00
     AMIN     =   0.10
     WC   =   100.;   INIMIX=   1;  MIXPRE=   1;  MAXMIX= -45

 Intra band minimization:
   WEIMIN = 0.0000     energy-eigenvalue tresh-hold
   EBREAK =  0.18E-10  absolut break condition
   DEPER  =   0.30     relativ break condition  

   TIME   =   0.40     timestep for ELM

  volume/ion in A,a.u.               =      11.32        76.42
  Fermi-wavevector in a.u.,A,eV,Ry     =   1.449629  2.739402 28.591621  2.101425
  Thomas-Fermi vector in A             =   2.567334
 
 Write flags
   LWAVE        =      F    write WAVECAR
   LDOWNSAMPLE  =      F    k-point downsampling of WAVECAR
   LCHARG       =      T    write CHGCAR
   LVTOT        =      F    write LOCPOT, total local potential
   LVHAR        =      F    write LOCPOT, Hartree potential only
   LELF         =      F    write electronic localiz. function (ELF)
   LORBIT       =     11    0 simple, 1 ext, 2 COOP (PROOUT), +10 PAW based schemes


 Dipole corrections
   LMONO  =      F    monopole corrections only (constant potential shift)
   LDIPOL =      F    correct potential (dipole corrections)
   IDIPOL =      0    1-x, 2-y, 3-z, 4-all directions 
   EPSILON=  1.0000000 bulk dielectric constant

 Exchange correlation treatment:
   GGA     =    --    GGA type
   LEXCH   =     8    internal setting for exchange type
   VOSKOWN=      0    Vosko Wilk Nusair interpolation
   LHFCALC =     F    Hartree Fock is set to
   LHFONE  =     F    Hartree Fock one center treatment
   AEXX    =    0.0000 exact exchange contribution

 Linear response parameters
   LEPSILON=     F    determine dielectric tensor
   LRPA    =     F    only Hartree local field effects (RPA)
   LNABLA  =     F    use nabla operator in PAW spheres
   LVEL    =     F    velocity operator in full k-point grid
   LINTERFAST=   F  fast interpolation
   KINTER  =     0    interpolate to denser k-point grid
   CSHIFT  =0.1000    complex shift for real part using Kramers Kronig
   OMEGAMAX=  -1.0    maximum frequency
   DEG_THRESHOLD= 0.2000000E-02 threshold for treating states as degnerate
   RTIME   =   -0.100 relaxation time in fs
  (WPLASMAI=    0.000 imaginary part of plasma frequency in eV, 0.658/RTIME)
   DFIELD  = 0.0000000 0.0000000 0.0000000 field for delta impulse in time
 
 Orbital magnetization related:
   ORBITALMAG=     F  switch on orbital magnetization
   LCHIMAG   =     F  perturbation theory with respect to B field
   DQ        =  0.001000  dq finite difference perturbation B field
   LLRAUG    =     F  two centre corrections for induced B field



--------------------------------------------------------------------------------------------------------


 Static calculation
 charge density and potential will be updated during run
 non-spin polarized calculation
 Variant of blocked Davidson
 Davidson routine will perform the subspace rotation
 perform sub-space diagonalisation
    after iterative eigenvector-optimisation
 modified Broyden-mixing scheme, WC =      100.0
 initial mixing is a Kerker type mixing with AMIX =  0.4000 and BMIX =      1.0000
 Hartree-type preconditioning will be used
 using additional bands           22
 real space projection scheme for non local part
 use partial core corrections
 calculate Harris-corrections to forces 
   (improved forces if not selfconsistent)
 use gradient corrections 
 use of overlap-Matrix (Vanderbilt PP)
 Methfessel and Paxton  Order N= 2 SIGMA  =   0.20


--------------------------------------------------------------------------------------------------------


  energy-cutoff  :      600.00
  volume of cell :      328.39
      direct lattice vectors                 reciprocal lattice vectors
     5.416500000  0.000000000  0.000000000     0.184621065  0.106591035  0.000000000
    -2.708250000  4.690826000  0.000000000     0.000000000  0.213182071  0.000000000
     0.000000000  0.000000000 12.924700000     0.000000000  0.000000000  0.077371235

  length of vectors
     5.416500000  5.416499481 12.924700000     0.213182050  0.213182071  0.077371235


 
 k-points in units of 2pi/SCALE and weight: Automatic mesh                          
   0.01153882  0.01998582  0.00483570       0.002
   0.03461645  0.03330970  0.00483570       0.002
   0.05769408  0.04663358  0.00483570       0.002
   0.08077172  0.05995746  0.00483570       0.002
  -0.08077172 -0.03330970  0.00483570       0.002
  -0.05769408 -0.01998582  0.00483570       0.002
  -0.03461645 -0.00666194  0.00483570       0.002
  -0.01153882  0.00666194  0.00483570       0.002
   0.01153882  0.04663358  0.00483570       0.002
   0.03461645  0.05995746  0.00483570       0.002
   0.05769408  0.07328134  0.00483570       0.002
   0.08077172  0.08660522  0.00483570       0.002
  -0.08077172 -0.00666194  0.00483570       0.002
  -0.05769408  0.00666194  0.00483570       0.002
  -0.03461645  0.01998582  0.00483570       0.002
  -0.01153882  0.03330970  0.00483570       0.002
   0.01153882  0.07328134  0.00483570       0.002
   0.03461645  0.08660522  0.00483570       0.002
   0.05769408  0.09992910  0.00483570       0.002
   0.08077172  0.11325298  0.00483570       0.002
  -0.08077172  0.01998582  0.00483570       0.002
  -0.05769408  0.03330970  0.00483570       0.002
  -0.03461645  0.04663358  0.00483570       0.002
  -0.01153882  0.05995746  0.00483570       0.002
   0.01153882  0.09992910  0.00483570       0.002
   0.03461645  0.11325298  0.00483570       0.002
   0.05769408  0.12657685  0.00483570       0.002
   0.08077172  0.13990073  0.00483570       0.002
  -0.08077172  0.04663358  0.00483570       0.002
  -0.05769408  0.05995746  0.00483570       0.002
  -0.03461645  0.07328134  0.00483570       0.002
  -0.01153882  0.08660522  0.00483570       0.002
   0.01153882 -0.08660522  0.00483570       0.002
   0.03461645 -0.07328134  0.00483570       0.002
   0.05769408 -0.05995746  0.00483570       0.002
   0.08077172 -0.04663358  0.00483570       0.002
  -0.08077172 -0.13990073  0.00483570       0.002
  -0.05769408 -0.12657685  0.00483570       0.002
  -0.03461645 -0.11325298  0.00483570       0.002
  -0.01153882 -0.09992910  0.00483570       0.002
   0.01153882 -0.05995746  0.00483570       0.002
   0.03461645 -0.04663358  0.00483570       0.002
   0.05769408 -0.03330970  0.00483570       0.002
   0.08077172 -0.01998582  0.00483570       0.002
  -0.08077172 -0.11325298  0.00483570       0.002
  -0.05769408 -0.09992910  0.00483570       0.002
  -0.03461645 -0.08660522  0.00483570       0.002
  -0.01153882 -0.07328134  0.00483570       0.002
   0.01153882 -0.03330970  0.00483570       0.002
   0.03461645 -0.01998582  0.00483570       0.002
   0.05769408 -0.00666194  0.00483570       0.002
   0.08077172  0.00666194  0.00483570       0.002
  -0.08077172 -0.08660522  0.00483570       0.002
  -0.05769408 -0.07328134  0.00483570       0.002
  -0.03461645 -0.05995746  0.00483570       0.002
[...]
  0.000  -0.002  -0.001   0.000  -0.005   0.000   0.000  -0.001
 -0.000  -0.000  -0.002   0.002   0.001   0.002  -0.001  -0.001
  0.000   0.000   0.003   0.002   0.001  -0.002  -0.001  -0.000
 -0.001  -0.000  -0.008  -0.002   0.000   0.005   0.001  -0.000
 -0.000   0.000   0.001  -0.004  -0.002  -0.001   0.002   0.001
  0.001   0.000   0.000   0.006  -0.008  -0.000  -0.003   0.005
 -0.001  -0.000   0.004  -0.003   0.004  -0.002   0.002  -0.002
  0.001   0.002  -0.001   0.000  -0.003   0.001  -0.000   0.002
 -0.000  -0.000  -0.002   0.002   0.001   0.002  -0.001  -0.001
  0.000   0.000   0.003   0.001   0.001  -0.002  -0.001  -0.000
 -0.001  -0.000  -0.007  -0.002   0.000   0.005   0.001  -0.000
 -0.000   0.000   0.001  -0.004  -0.002  -0.001   0.002   0.001
  0.001   0.000   0.000   0.005  -0.007  -0.000  -0.003   0.005
 -0.001  -0.000   0.003  -0.003   0.003  -0.002   0.002  -0.002
  0.001   0.002  -0.001   0.000  -0.003   0.001  -0.000   0.002
 total augmentation occupancy for first ion, spin component:           1
  1.993   0.028   0.000   0.001  -0.000   0.000   0.002  -0.001  -0.001   0.002   0.001  -0.009   0.001   0.000  -0.000   0.004
  0.028   0.576   0.005   0.027  -0.015  -0.001  -0.003   0.001   0.010  -0.009  -0.136   0.029  -0.005  -0.004   0.005   0.066
  0.000   0.005   2.034  -0.001   0.001  -0.010   0.001  -0.001   0.117   0.018   0.005  -0.013  -0.001  -0.045  -0.006  -0.002
  0.001   0.027  -0.001   2.027   0.005   0.001  -0.003  -0.003  -0.007   0.015   0.038  -0.048   0.010   0.003  -0.007  -0.015
 -0.000  -0.015   0.001   0.005   2.030  -0.001  -0.003  -0.007   0.006  -0.003  -0.017   0.047  -0.133  -0.002   0.002   0.008
  0.000  -0.001  -0.010   0.001  -0.001   0.015  -0.000   0.000  -0.071  -0.001  -0.002   0.005  -0.001   0.033   0.000   0.001
  0.002  -0.003   0.001  -0.003  -0.003  -0.000   0.012   0.001   0.003  -0.004  -0.006   0.011  -0.002  -0.001   0.002   0.003
 -0.001   0.001  -0.001  -0.003  -0.007   0.000   0.001   0.015  -0.002   0.001   0.006  -0.009   0.071   0.001  -0.000  -0.003
 -0.001   0.010   0.117  -0.007   0.006  -0.071   0.003  -0.002   1.802   0.001   0.020   0.084   0.000  -0.858  -0.001  -0.010
  0.002  -0.009   0.018   0.015  -0.003  -0.001  -0.004   0.001   0.001   1.315  -0.028   0.046   0.103  -0.002  -0.619   0.015
  0.001  -0.136   0.005   0.038  -0.017  -0.002  -0.006   0.006   0.020  -0.028   1.660   0.075  -0.009  -0.010   0.015  -0.795
 -0.009   0.029  -0.013  -0.048   0.047   0.005   0.011  -0.009   0.084   0.046   0.075   1.189   0.026  -0.049  -0.024  -0.041
  0.001  -0.005  -0.001   0.010  -0.133  -0.001  -0.002   0.071   0.000   0.103  -0.009   0.026   1.787  -0.001  -0.057   0.008
  0.000  -0.004  -0.045   0.003  -0.002   0.033  -0.001   0.001  -0.858  -0.002  -0.010  -0.049  -0.001   0.414   0.001   0.005
 -0.000   0.005  -0.006  -0.007   0.002   0.000   0.002  -0.000  -0.001  -0.619   0.015  -0.024  -0.057   0.001   0.294  -0.008
  0.004   0.066  -0.002  -0.015   0.008   0.001   0.003  -0.003  -0.010   0.015  -0.795  -0.041   0.008   0.005  -0.008   0.385
  0.003  -0.016   0.006   0.021  -0.019  -0.002  -0.006   0.004  -0.049  -0.024  -0.041  -0.551  -0.018   0.028   0.012   0.022
  0.000   0.003   0.000  -0.005   0.051   0.000   0.001  -0.033  -0.001  -0.057   0.008  -0.017  -0.851   0.001   0.032  -0.005
 -0.001   0.004  -0.005   0.018   0.004   0.000  -0.005  -0.000   0.004   0.005   0.005  -0.010   0.002  -0.001  -0.003  -0.002
  0.002  -0.009   0.011   0.010   0.019  -0.000  -0.003  -0.007  -0.001  -0.061  -0.022   0.035  -0.002   0.000   0.029   0.011
 -0.003   0.008  -0.029  -0.011   0.004   0.015   0.002  -0.002  -0.372   0.014   0.018  -0.016   0.005   0.178  -0.006  -0.009
 -0.001   0.003   0.001  -0.003  -0.007   0.000  -0.003  -0.000  -0.005   0.005  -0.008  -0.010  -0.000   0.002  -0.002   0.002
  0.009  -0.028   0.004   0.035  -0.041  -0.002  -0.008   0.020   0.017  -0.049  -0.050   0.100   0.338  -0.008   0.023   0.026
 -0.005   0.014   0.027  -0.017   0.022  -0.008   0.004  -0.004  -0.010   0.016   0.030  -0.006   0.005   0.005  -0.007  -0.015
  0.020  -0.243  -0.003   0.003  -0.010   0.000  -0.001   0.001   0.003  -0.003   0.500   0.014   0.000  -0.002   0.001  -0.240
  0.001  -0.006   0.007  -0.022  -0.005  -0.000   0.006   0.000  -0.006  -0.006  -0.007   0.011  -0.002   0.002   0.003   0.003
 -0.003   0.010  -0.013  -0.013  -0.025   0.000   0.003   0.009   0.001   0.083   0.028  -0.045   0.002  -0.000  -0.038  -0.014
  0.003  -0.009   0.042   0.014  -0.005  -0.020  -0.003   0.002   0.493  -0.020  -0.021   0.018  -0.006  -0.233   0.009   0.011
  0.001  -0.003  -0.001   0.004   0.009  -0.001   0.004   0.000   0.008  -0.006   0.014   0.011  -0.000  -0.003   0.003  -0.005
 -0.010   0.036  -0.006  -0.046   0.058   0.002   0.010  -0.027  -0.024   0.063   0.061  -0.130  -0.451   0.011  -0.030  -0.032
  0.005  -0.017  -0.036   0.023  -0.029   0.010  -0.006   0.006   0.011  -0.022  -0.038   0.000  -0.002  -0.006   0.010   0.019
 -0.026   0.322   0.004  -0.004   0.013  -0.000   0.001  -0.002  -0.002   0.003  -0.657  -0.017  -0.004   0.002  -0.002   0.312


------------------------ aborting loop because EDIFF is reached ----------------------------------------


 


 total charge     
 
# of ion       s       p       d       f       tot
--------------------------------------------------
    1        2.012   5.702   0.607   0.229   8.551
    2        2.012   5.711   0.599   0.228   8.550
    3        2.012   5.702   0.607   0.229   8.551
    4        2.012   5.711   0.599   0.228   8.550
    5        2.012   5.711   0.599   0.228   8.550
    6        2.010   5.695   0.586   0.224   8.515
    7        0.433   0.656   8.290   0.000   9.379
    8        0.421   0.587   8.348   0.000   9.356
    9        0.421   0.586   8.348   0.000   9.356
   10        0.433   0.656   8.290   0.000   9.378
   11        0.434   0.657   8.297   0.000   9.388
   12        0.434   0.657   8.297   0.000   9.388
   13        1.561   3.446   0.000   0.000   5.007
   14        1.560   3.448   0.000   0.000   5.008
   15        1.568   3.439   0.000   0.000   5.007
   16        1.563   3.446   0.000   0.000   5.009
   17        1.563   3.447   0.000   0.000   5.010
   18        1.562   3.450   0.000   0.000   5.012
   19        1.560   3.448   0.000   0.000   5.008
   20        1.561   3.446   0.000   0.000   5.007
   21        1.568   3.439   0.000   0.000   5.007
   22        1.563   3.447   0.000   0.000   5.010
   23        1.563   3.446   0.000   0.000   5.009
   24        1.562   3.450   0.000   0.000   5.012
   25        1.564   3.446   0.000   0.000   5.009
   26        1.564   3.446   0.000   0.000   5.009
   27        1.562   3.449   0.000   0.000   5.011
   28        1.559   3.446   0.000   0.000   5.005
   29        1.559   3.446   0.000   0.000   5.005
--------------------------------------------------
tot         41.207  96.612  53.468   1.368 192.656

 
    CHARGE:  cpu time   59.9483: real time   59.9111
    FORLOC:  cpu time    0.0432: real time    0.0432
    FORNL :  cpu time  308.3350: real time  308.1107
    STRESS:  cpu time  929.7310: real time  929.3141
    FORCOR:  cpu time    0.1724: real time    0.1727
    FORHAR:  cpu time    0.0642: real time    0.0642
    MIXING:  cpu time    0.0229: real time    0.0242
    OFIELD:  cpu time    0.0003: real time    0.0003

  FORCE on cell =-STRESS in cart. coord.  units (eV):
  Direction    XX          YY          ZZ          XY          YZ          ZX
  --------------------------------------------------------------------------------------
  Alpha Z   991.48694   991.48694   991.48694
  Ewald   -5434.11144 -5283.82998 -5758.70065   130.14245   114.58388  -198.46367
  Hartree  1406.82440  1522.94732  1191.44327   100.56115    86.47707  -149.78113
  E(xc)   -1078.94906 -1078.80477 -1079.66522     0.12495     0.12862    -0.22278
  Local   -1031.03629 -1289.07967  -498.07707  -223.46399  -194.64733   337.13782
  n-local   474.85068   475.66189   483.87328     0.70262     0.21106    -0.36410
  augment   913.64943   909.75280   915.95594    -3.37399    -2.95623     5.11847
  Kinetic  3772.22587  3766.94815  3767.70054    -4.56990    -3.08517     5.34193
  Fock        0.00000     0.00000     0.00000     0.00000     0.00000     0.00000
  -------------------------------------------------------------------------------------
  Total      14.94053    15.08267    14.01703     0.12329     0.71190    -1.23346
  in kB      72.89340    73.58685    68.38771     0.60153     3.47331    -6.01792
  external pressure =       71.62 kB  Pullay stress =        0.00 kB


 VOLUME and BASIS-vectors are now :
 -----------------------------------------------------------------------------
  energy-cutoff  :      600.00
  volume of cell :      328.39
      direct lattice vectors                 reciprocal lattice vectors
     5.416500000  0.000000000  0.000000000     0.184621065  0.106591035  0.000000000
    -2.708250000  4.690826000  0.000000000     0.000000000  0.213182071  0.000000000
     0.000000000  0.000000000 12.924700000     0.000000000  0.000000000  0.077371235

  length of vectors
     5.416500000  5.416499481 12.924700000     0.213182050  0.213182071  0.077371235


 FORCES acting on ions
    electron-ion (+dipol)            ewald-force                    non-local-force                 convergence-correction
 -----------------------------------------------------------------------------------------------
   0.419E+02 -.154E+02 -.164E+03   -.414E+02 0.153E+02 0.163E+03   -.155E+00 0.255E-01 0.207E+00   0.754E-04 -.986E-04 0.499E-05
   0.242E+01 -.895E+00 0.792E+02   -.235E+01 0.882E+00 -.790E+02   -.150E-01 -.272E-02 -.625E-01   0.310E-04 -.884E-05 0.849E-05
   -.343E+02 0.286E+02 0.164E+03   0.339E+02 -.282E+02 -.163E+03   0.999E-01 -.122E+00 -.206E+00   -.119E-03 0.235E-04 0.375E-03
   -.197E+01 0.164E+01 -.792E+02   0.193E+01 -.159E+01 0.790E+02   0.499E-02 -.143E-01 0.630E-01   -.320E-04 0.298E-04 -.143E-03
   -.538E-01 -.726E-01 0.331E-01   0.545E-01 0.733E-01 -.321E-01   -.644E-02 -.115E-01 -.585E-03   0.803E-05 0.129E-04 -.381E-03
   -.289E+02 -.501E+02 0.325E-01   0.283E+02 0.490E+02 -.321E-01   0.604E+00 0.105E+01 -.592E-03   -.903E-04 -.174E-03 0.137E-03
   0.645E+00 -.302E+00 -.358E+02   -.532E+00 0.200E+00 0.357E+02   -.104E+00 -.367E-02 0.508E-01   -.150E-04 -.359E-04 -.304E-03
   0.142E+03 -.517E+02 0.167E+03   -.141E+03 0.514E+02 -.166E+03   -.164E+01 0.520E+00 -.164E+01   0.712E-03 -.224E-03 0.659E-03
   -.116E+03 0.970E+02 -.167E+03   0.115E+03 -.962E+02 0.166E+03   0.127E+01 -.116E+01 0.164E+01   -.574E-03 0.519E-03 -.427E-03
   -.568E+00 0.398E+00 0.359E+02   0.422E+00 -.351E+00 -.357E+02   0.488E-01 -.918E-01 -.504E-01   -.198E-04 -.286E-04 -.119E-03
   -.192E+01 -.206E+01 0.102E+03   0.151E+01 0.258E+01 -.102E+03   0.222E+00 -.231E-02 -.348E+00   -.116E-03 0.106E-03 0.245E-03
   -.853E+00 -.267E+01 -.102E+03   0.151E+01 0.258E+01 0.102E+03   -.113E+00 0.191E+00 0.347E+00   0.184E-03 -.621E-04 -.569E-04
   -.528E+01 -.799E+01 -.904E+02   0.378E+01 0.834E+01 0.890E+02   0.183E+01 -.206E+00 0.208E+01   -.275E-04 0.494E-03 0.120E-03
   -.556E+01 0.399E+02 -.906E+02   0.533E+01 -.400E+02 0.890E+02   0.134E+00 -.493E+00 0.239E+01   -.459E-03 -.152E-03 0.127E-03
   -.981E+01 -.236E+02 -.692E+02   0.103E+02 0.222E+02 0.695E+02   -.131E+01 0.187E+01 -.594E+00   0.452E-03 -.345E-03 0.227E-03
   -.195E+02 -.601E+00 0.444E+02   0.200E+02 0.669E+00 -.440E+02   -.512E+00 -.138E+00 -.534E+00   -.604E-04 0.135E-03 0.191E-03
   0.915E+01 -.147E+02 0.426E+02   -.940E+01 0.152E+02 -.423E+02   0.272E+00 -.453E+00 -.446E+00   -.940E-04 -.824E-04 0.189E-03
   0.880E+01 0.159E+02 0.417E+02   -.939E+01 -.163E+02 -.416E+02   0.839E+00 0.168E+00 -.136E+00   0.144E-03 -.401E-04 0.206E-03
   0.374E+02 0.151E+02 0.906E+02   -.373E+02 -.154E+02 -.890E+02   -.495E+00 -.133E+00 -.239E+01   0.985E-04 -.156E-03 0.216E-03
   -.426E+01 -.856E+01 0.904E+02   0.530E+01 0.743E+01 -.890E+02   -.109E+01 0.149E+01 -.208E+01   0.169E-03 0.606E-04 0.225E-03
   -.156E+02 -.203E+02 0.692E+02   0.141E+02 0.201E+02 -.694E+02   0.227E+01 -.204E+00 0.594E+00   -.236E-03 0.514E-04 0.137E-03
   -.173E+02 0.528E+00 -.426E+02   0.179E+02 -.512E+00 0.423E+02   -.530E+00 0.637E-02 0.445E+00   0.835E-04 0.802E-06 -.164E-03
   0.922E+01 -.171E+02 -.444E+02   -.941E+01 0.176E+02 0.441E+02   0.137E+00 -.510E+00 0.534E+00   -.666E-05 0.440E-04 -.169E-03
   0.940E+01 0.156E+02 -.417E+02   -.939E+01 -.163E+02 0.416E+02   -.274E+00 0.811E+00 0.137E+00   -.623E-04 -.441E-04 -.192E-03
   0.184E+02 -.464E-01 0.507E-01   -.188E+02 0.167E-01 -.300E-01   0.465E+00 0.327E-01 -.155E-01   0.766E-05 -.289E-03 -.326E-03
   -.927E+01 0.159E+02 0.657E-02   0.946E+01 -.162E+02 -.290E-01   -.207E+00 0.414E+00 0.164E-01   0.252E-03 0.154E-03 -.338E-03
   -.883E+01 -.153E+02 0.123E-01   0.934E+01 0.162E+02 -.112E-01   -.483E+00 -.838E+00 -.109E-02   -.259E-03 0.130E-03 -.329E-03
   -.940E+01 0.523E+01 -.491E-01   0.101E+02 -.504E+01 -.290E-01   -.670E+00 -.273E+00 0.217E-01   -.869E-04 -.121E-03 -.477E-04
   0.920E+01 -.555E+01 0.106E+00   -.937E+01 0.626E+01 -.300E-01   0.968E-01 -.722E+00 -.210E-01   0.175E-03 0.131E-04 -.221E-04
 -----------------------------------------------------------------------------------------------
   -.686E+00 -.119E+01 0.248E-03   0.817E-13 -.151E-13 -.924E-13   0.685E+00 0.119E+01 -.259E-03   0.135E-03 -.876E-04 0.454E-04
 
 
 POSITION                                       TOTAL-FORCE (eV/Angst)
 -----------------------------------------------------------------------------------
      0.00000      0.00000      3.23117         0.375812     -0.064959     -0.826125
      0.00000      0.00000      9.69352         0.050100     -0.015052      0.174253
      2.70828      1.56359      7.53937        -0.244472      0.293235      0.826139
      2.70828      1.56359      1.07702        -0.038438      0.035990     -0.174095
     -0.00003      3.12723     11.84768        -0.005766     -0.010750     -0.000025
     -0.00003      3.12723      5.38533        -0.023137     -0.040881     -0.000095
      0.00000      0.00000      0.00000         0.009062     -0.105678     -0.058385
      0.00000      0.00000      6.46235        -0.497670      0.214889     -0.224216
      2.70828      1.56359      4.30819         0.434132     -0.323119      0.224973
      2.70828      1.56359     10.77054        -0.096850     -0.044526      0.059390
     -0.00003      3.12723      8.61651        -0.186935      0.521023      0.029959
     -0.00003      3.12723      2.15416         0.546326      0.097619     -0.031924
      2.42690      0.00000      3.23117         0.328019      0.137682      0.734250
     -1.21345      2.10176      3.23117        -0.096977     -0.538026      0.779179
      1.49480      2.58907      3.23117        -0.790562      0.447272     -0.315739
      2.98960      0.00000      9.69352        -0.025555     -0.069630     -0.159127
     -1.49480      2.58907      9.69352         0.027848     -0.004701     -0.148213
      1.21345      2.10176      9.69352         0.248726     -0.160964     -0.034301
     -0.28132      1.56359      7.53937        -0.417650     -0.352456     -0.778545
      1.49483      3.66535      7.53937        -0.045413      0.352934     -0.733617
     -1.21342      4.15266      7.53937         0.782602     -0.461049      0.316241
      0.28138      1.56359      1.07702        -0.018302      0.022251      0.148871
      1.21348      4.15266      1.07702        -0.048085     -0.057176      0.159915
     -1.49477      3.66535      1.07702        -0.263706      0.134978      0.034517
      2.42687      3.12723     11.84768         0.039210      0.002677      0.004856
      1.49477      0.53816     11.84768        -0.016224      0.035491     -0.006338
      4.20302      1.02548     11.84768         0.027861      0.048220     -0.000328
      2.98957      3.12723      5.38533         0.023289     -0.077113     -0.056488
      1.21342      1.02548      5.38533        -0.077248     -0.018180      0.055017
 -----------------------------------------------------------------------------------
    total drift:                               -0.000332     -0.000536      0.000034


--------------------------------------------------------------------------------------------------------



  FREE ENERGIE OF THE ION-ELECTRON SYSTEM (eV)
  ---------------------------------------------------
  free  energy   TOTEN  =      -208.71486162 eV

  energy  without entropy=     -208.71881756  energy(sigma->0) =     -208.71585061
 


--------------------------------------------------------------------------------------------------------


    POTLOK:  cpu time    2.1324: real time    2.1323


--------------------------------------------------------------------------------------------------------


 stress matrix after NEB project (eV)
     14.94053      0.12329     -1.23346
      0.12329     15.08267      0.71190
     -1.23346      0.71190     14.01703
  FORCES: max atom, RMS     0.961790    0.536918
  FORCE total and by dimension    2.891392    0.826139
  Stress total and by dimension   25.520001   15.082668
     LOOP+:  cpu time62190.1341: real time62200.7492
    4ORBIT:  cpu time    0.0000: real time    0.0000
 


 total charge     
 
# of ion       s       p       d       f       tot
--------------------------------------------------
    1        2.012   5.702   0.607   0.229   8.551
    2        2.012   5.711   0.599   0.228   8.550
    3        2.012   5.702   0.607   0.229   8.551
    4        2.012   5.711   0.599   0.228   8.550
    5        2.012   5.711   0.599   0.228   8.550
    6        2.010   5.695   0.586   0.224   8.515
    7        0.433   0.656   8.290   0.000   9.379
    8        0.421   0.587   8.348   0.000   9.356
    9        0.421   0.586   8.348   0.000   9.356
   10        0.433   0.656   8.290   0.000   9.378
   11        0.434   0.657   8.297   0.000   9.388
   12        0.434   0.657   8.297   0.000   9.388
   13        1.561   3.446   0.000   0.000   5.007
   14        1.560   3.448   0.000   0.000   5.008
   15        1.568   3.439   0.000   0.000   5.007
   16        1.563   3.446   0.000   0.000   5.009
   17        1.563   3.447   0.000   0.000   5.010
   18        1.562   3.450   0.000   0.000   5.012
   19        1.560   3.448   0.000   0.000   5.008
   20        1.561   3.446   0.000   0.000   5.007
   21        1.568   3.439   0.000   0.000   5.007
   22        1.563   3.447   0.000   0.000   5.010
   23        1.563   3.446   0.000   0.000   5.009
   24        1.562   3.450   0.000   0.000   5.012
   25        1.564   3.446   0.000   0.000   5.009
   26        1.564   3.446   0.000   0.000   5.009
   27        1.562   3.449   0.000   0.000   5.011
   28        1.559   3.446   0.000   0.000   5.005
   29        1.559   3.446   0.000   0.000   5.005
--------------------------------------------------
tot         41.207  96.612  53.468   1.368 192.656

 

 total amount of memory used by VASP MPI-rank0   405841. kBytes
=======================================================================

   base      :      30000. kBytes
   nonlr-proj:       7993. kBytes
   fftplans  :       7973. kBytes
   grid      :       4425. kBytes
   one-center:         49. kBytes
   wavefun   :     355401. kBytes
 
  
  
 General timing and accounting informations for this job:
 ========================================================
  
                  Total CPU time used (sec):    62953.625
                            User time (sec):    61719.791
                          System time (sec):     1233.834
                         Elapsed time (sec):    62969.940
  
                   Maximum memory used (kb):     1282300.
                   Average memory used (kb):           0.
  
                          Minor page faults:       453494
                          Major page faults:          102
                 Voluntary context switches:       576205
